# vtk DataFile Version 3.0
Scalar Field Data
ASCII
DATASET STRUCTURED_POINTS
DIMENSIONS 256 256 1
ORIGIN 0 0 0
SPACING 0.00392157 0.00392157 1
POINT_DATA 65536
SCALARS scalars double
LOOKUP_TABLE default
0
0
0
0
0
0
0
0
0
0
0
0
0
0
0
0
0
0
0
0
0
0
0
0
0
0
0
0
0
0
0
0
0
0
0
0
0
0
0
0
0
0
0
0
0
0
0
0
0
0
0
0
0
0
0
0
0
0
0
0
0
0
0
0
0
0
0
0
0
0
0
0
0
0
0
0
0
0
0
0
0
0
0
0
0
0
0
0
0
0
0
0
0
0
0
0
0
0
0
0
0
0
0
0
0
0
0
0
0
0
0
0
0
0
0
0
0
0
0
0
0
0
0
0
0
0
0
0
0
0
0
0
0
0
0
0
0
0
0
0
0
0
0
0
0
0
0
0
0
0
0
0
0
0
0
0
0
0
0
0
0
0
0
0
0
0
0
0
0
0
0
0
0
0
0
0
0
0
0
0
0
0
0
0
0
0
0
0
0
0
0
0
0
0
0
0
0
0
0
0
0
0
0
0
0
0
0
0
0
0
0
0
0
0
0
0
0
0
0
0
0
0
0
0
0
0
0
0
0
0
0
0
0
0
0
0
0
0
0
0
0
0
0
0
0
0
0
0
0
0
0
0
0
0
0
0
0
0.00060572
0.00121107
0.00181569
0.00241921
0.00302126
0.00362148
0.0042195
0.00481496
0.00540749
0.00599675
0.00658236
0.00716399
0.00774126
0.00831383
0.00888136
0.0094435
0.00999991
0.0105502
0.0110942
0.0116314
0.0121615
0.0126843
0.0131993
0.0137064
0.0142051
0.0146952
0.0151764
0.0156484
0.0161109
0.0165636
0.0170062
0.0174385
0.0178603
0.0182712
0.018671
0.0190594
0.0194363
0.0198015
0.0201545
0.0204954
0.0208238
0.0211396
0.0214425
0.0217324
0.0220092
0.0222726
0.0225224
0.0227586
0.022981
0.0231894
0.0233837
0.0235639
0.0237297
0.0238812
0.0240181
0.0241405
0.0242482
0.0243412
0.0244194
0.0244828
0.0245314
0.024565
0.0245837
0.0245876
0.0245764
0.0245504
0.0245095
0.0244537
0.024383
0.0242976
0.0241974
0.0240825
0.023953
0.0238089
0.0236504
0.0234776
0.0232905
0.0230892
0.022874
0.0226449
0.022402
0.0221455
0.0218756
0.0215924
0.0212961
0.0209868
0.0206649
0.0203304
0.0199835
0.0196245
0.0192536
0.018871
0.018477
0.0180718
0.0176555
0.0172286
0.0167912
0.0163436
0.0158861
0.015419
0.0149425
0.0144569
0.0139626
0.0134598
0.0129488
0.0124299
0.0119036
0.0113699
0.0108294
0.0102824
0.00972903
0.0091698
0.00860501
0.008035
0.00746011
0.0068807
0.00629711
0.0057097
0.00511883
0.00452485
0.00392813
0.00332902
0.0027279
0.00212513
0.00152106
0.00091608
0.000310543
-0.00029518
-0.000900724
-0.00150572
-0.00210979
-0.00271259
-0.00331373
-0.00391286
-0.00450961
-0.00510363
-0.00569454
-0.00628199
-0.00686562
-0.00744508
-0.00802002
-0.00859009
-0.00915494
-0.00971423
-0.0102676
-0.0108148
-0.0113554
-0.0118891
-0.0124155
-0.0129345
-0.0134455
-0.0139484
-0.0144429
-0.0149285
-0.0154051
-0.0158724
-0.01633
-0.0167777
-0.0172152
-0.0176422
-0.0180586
-0.0184639
-0.0188581
-0.0192408
-0.0196118
-0.0199709
-0.0203179
-0.0206526
-0.0209747
-0.0212841
-0.0215805
-0.0218638
-0.0221339
-0.0223905
-0.0226336
-0.0228629
-0.0230783
-0.0232797
-0.0234669
-0.0236399
-0.0237986
-0.0239428
-0.0240724
-0.0241875
-0.0242879
-0.0243735
-0.0244443
-0.0245003
-0.0245414
-0.0245675
-0.0245788
-0.0245751
-0.0245566
-0.0245231
-0.0244747
-0.0244115
-0.0243334
-0.0242406
-0.0241331
-0.0240109
-0.0238741
-0.0237228
-0.0235571
-0.0233771
-0.023183
-0.0229747
-0.0227525
-0.0225165
-0.0222668
-0.0220036
-0.021727
-0.0214372
-0.0211344
-0.0208188
-0.0204906
-0.0201499
-0.0197969
-0.019432
-0.0190552
-0.0186669
-0.0182672
-0.0178565
-0.0174349
-0.0170027
-0.0165602
-0.0161077
-0.0156453
-0.0151735
-0.0146924
-0.0142024
-0.0137038
-0.0131969
-0.012682
-0.0121594
-0.0116293
-0.0110923
-0.0105484
-0.00999822
-0.00944193
-0.00887991
-0.00831249
-0.00774002
-0.00716285
-0.00658134
-0.00599582
-0.00540667
-0.00481423
-0.00421887
-0.00362095
-0.00302082
-0.00241886
-0.00181543
-0.0012109
-0.000605636
0
0
0.00121107
0.00242141
0.00363029
0.00483696
0.00604069
0.00724076
0.00843644
0.009627
0.0108117
0.0119899
0.0131607
0.0143236
0.0154778
0.0166226
0.0177573
0.0188813
0.0199938
0.0210941
0.0221816
0.0232557
0.0243157
0.0253609
0.0263907
0.0274045
0.0284016
0.0293815
0.0303436
0.0312873
0.032212
0.0331171
0.0340021
0.0348665
0.0357097
0.0365313
0.0373306
0.0381073
0.0388609
0.0395909
0.0402969
0.0409784
0.041635
0.0422664
0.0428721
0.0434517
0.044005
0.0445316
0.0450312
0.0455034
0.045948
0.0463647
0.0467533
0.0471135
0.0474451
0.0477479
0.0480217
0.0482664
0.0484817
0.0486677
0.0488241
0.0489508
0.0490479
0.0491151
0.0491526
0.0491602
0.0491379
0.0490859
0.0490041
0.0488925
0.0487512
0.0485804
0.0483801
0.0481504
0.0478914
0.0476034
0.0472865
0.0469409
0.0465668
0.0461645
0.0457341
0.045276
0.0447904
0.0442776
0.0437379
0.0431717
0.0425792
0.041961
0.0413172
0.0406484
0.0399549
0.0392371
0.0384956
0.0377307
0.0369428
0.0361326
0.0353004
0.0344468
0.0335723
0.0326774
0.0317627
0.0308287
0.029876
0.0289051
0.0279167
0.0269114
0.0258897
0.0248524
0.0237999
0.022733
0.0216523
0.0205585
0.0194522
0.018334
0.0172048
0.0160651
0.0149157
0.0137572
0.0125904
0.0114159
0.0102346
0.00904696
0.00785388
0.00665603
0.00545415
0.00424896
0.0030412
0.0018316
0.000620895
-0.000590184
-0.0018009
-0.00301053
-0.00421832
-0.00542354
-0.00662546
-0.00782336
-0.0090165
-0.0102042
-0.0113856
-0.0125602
-0.0137271
-0.0148857
-0.0160352
-0.017175
-0.0183043
-0.0194226
-0.020529
-0.021623
-0.0227039
-0.0237709
-0.0248235
-0.0258611
-0.0268829
-0.0278884
-0.028877
-0.029848
-0.030801
-0.0317352
-0.0326501
-0.0335452
-0.0344199
-0.0352738
-0.0361062
-0.0369167
-0.0377048
-0.03847
-0.0392118
-0.0399298
-0.0406235
-0.0412926
-0.0419367
-0.0425552
-0.0431479
-0.0437145
-0.0442544
-0.0447675
-0.0452534
-0.0457119
-0.0461426
-0.0465452
-0.0469196
-0.0472655
-0.0475827
-0.0478711
-0.0481303
-0.0483603
-0.048561
-0.0487322
-0.0488738
-0.0489857
-0.0490678
-0.0491202
-0.0491428
-0.0491354
-0.0490983
-0.0490313
-0.0489346
-0.0488082
-0.0486521
-0.0484665
-0.0482515
-0.0480072
-0.0477337
-0.0474312
-0.0471
-0.0467401
-0.0463519
-0.0459355
-0.0454912
-0.0450193
-0.0445201
-0.0439938
-0.0434408
-0.0428615
-0.0422561
-0.041625
-0.0409687
-0.0402875
-0.0395819
-0.0388522
-0.0380989
-0.0373225
-0.0365234
-0.0357022
-0.0348592
-0.0339951
-0.0331104
-0.0322056
-0.0312812
-0.0303378
-0.0293759
-0.0283963
-0.0273994
-0.0263859
-0.0253563
-0.0243114
-0.0232516
-0.0221778
-0.0210905
-0.0199904
-0.0188781
-0.0177544
-0.0166199
-0.0154754
-0.0143214
-0.0131587
-0.011988
-0.0108101
-0.00962555
-0.00843518
-0.0072397
-0.00603981
-0.00483626
-0.00362977
-0.00242107
-0.00121091
0
0
0.00181569
0.00363029
0.00544268
0.00725177
0.00905646
0.0108557
0.0126483
0.0144332
0.0162094
0.0179757
0.0197311
0.0214746
0.023205
0.0249214
0.0266226
0.0283076
0.0299755
0.0316252
0.0332557
0.034866
0.0364551
0.0380221
0.039566
0.0410859
0.0425809
0.0440501
0.0454925
0.0469072
0.0482935
0.0496505
0.0509774
0.0522733
0.0535375
0.0547692
0.0559677
0.0571321
0.0582619
0.0593564
0.0604148
0.0614365
0.0624209
0.0633675
0.0642756
0.0651447
0.0659742
0.0667637
0.0675126
0.0682206
0.0688872
0.0695119
0.0700945
0.0706345
0.0711317
0.0715856
0.0719961
0.072363
0.0726858
0.0729646
0.0731991
0.0733891
0.0735346
0.0736355
0.0736917
0.0737031
0.0736697
0.0735917
0.073469
0.0733017
0.0730899
0.0728338
0.0725334
0.072189
0.0718008
0.0713691
0.070894
0.0703758
0.069815
0.0692118
0.0685665
0.0678797
0.0671516
0.0663828
0.0655737
0.0647248
0.0638366
0.0629096
0.0619445
0.0609418
0.0599021
0.058826
0.0577142
0.0565674
0.0553862
0.0541715
0.0529238
0.0516441
0.050333
0.0489913
0.0476199
0.0462196
0.0447913
0.0433358
0.0418539
0.0403467
0.038815
0.0372597
0.0356818
0.0340823
0.0324621
0.0308221
0.0291635
0.0274872
0.0257942
0.0240855
0.0223622
0.0206254
0.0188761
0.0171153
0.0153441
0.0135636
0.0117749
0.009979
0.00817709
0.00637022
0.0045595
0.00274601
0.000930868
-0.000884833
-0.0027
-0.00451351
-0.00632428
-0.0081312
-0.00993318
-0.0117291
-0.0135179
-0.0152985
-0.0170698
-0.0188307
-0.0205802
-0.0223172
-0.0240406
-0.0257495
-0.0274427
-0.0291192
-0.030778
-0.0324181
-0.0340386
-0.0356384
-0.0372165
-0.038772
-0.040304
-0.0418115
-0.0432936
-0.0447494
-0.0461781
-0.0475787
-0.0489504
-0.0502924
-0.0516038
-0.052884
-0.054132
-0.0553471
-0.0565286
-0.0576758
-0.058788
-0.0598644
-0.0609045
-0.0619077
-0.0628732
-0.0638006
-0.0646892
-0.0655386
-0.0663481
-0.0671174
-0.0678459
-0.0685332
-0.0691789
-0.0697826
-0.0703439
-0.0708625
-0.0713381
-0.0717703
-0.072159
-0.0725039
-0.0728047
-0.0730613
-0.0732736
-0.0734414
-0.0735646
-0.0736431
-0.0736769
-0.0736659
-0.0736102
-0.0735098
-0.0733648
-0.0731753
-0.0729413
-0.0726631
-0.0723407
-0.0719744
-0.0715644
-0.0711109
-0.0706143
-0.0700747
-0.0694927
-0.0688684
-0.0682023
-0.0674948
-0.0667464
-0.0659574
-0.0651283
-0.0642597
-0.0633521
-0.062406
-0.061422
-0.0604008
-0.0593428
-0.0582488
-0.0571195
-0.0559555
-0.0547575
-0.0535262
-0.0522624
-0.050967
-0.0496405
-0.0482839
-0.046898
-0.0454837
-0.0440417
-0.0425729
-0.0410783
-0.0395588
-0.0380152
-0.0364486
-0.0348598
-0.0332499
-0.0316198
-0.0299704
-0.0283029
-0.0266182
-0.0249173
-0.0232013
-0.0214712
-0.0197281
-0.0179729
-0.0162069
-0.014431
-0.0126464
-0.0108541
-0.00905514
-0.00725073
-0.0054419
-0.00362978
-0.00181544
0
0
0.00241921
0.00483696
0.00725177
0.00966218
0.0120667
0.014464
0.0168524
0.0192306
0.0215972
0.0239507
0.0262896
0.0286125
0.0309181
0.033205
0.0354716
0.0377168
0.039939
0.0421371
0.0443095
0.046455
0.0485724
0.0506603
0.0527174
0.0547425
0.0567344
0.0586919
0.0606137
0.0624987
0.0643458
0.0661539
0.0679218
0.0696484
0.0713328
0.0729739
0.0745707
0.0761223
0.0776276
0.0790858
0.080496
0.0818574
0.083169
0.0844302
0.0856401
0.0867981
0.0879033
0.0889552
0.0899532
0.0908965
0.0917846
0.092617
0.0933932
0.0941127
0.0947751
0.09538
0.0959269
0.0964157
0.0968459
0.0972173
0.0975297
0.0977829
0.0979768
0.0981112
0.098186
0.0982012
0.0981567
0.0980528
0.0978893
0.0976664
0.0973843
0.097043
0.0966428
0.0961839
0.0956667
0.0950914
0.0944584
0.093768
0.0930208
0.092217
0.0913573
0.0904422
0.0894721
0.0884478
0.0873697
0.0862386
0.0850552
0.0838201
0.0825342
0.0811982
0.0798129
0.0783791
0.0768978
0.0753698
0.0737961
0.0721775
0.0705152
0.06881
0.0670631
0.0652755
0.0634483
0.0615826
0.0596795
0.0577401
0.0557657
0.0537575
0.0517167
0.0496444
0.0475421
0.0454109
0.0432521
0.0410671
0.0388571
0.0366236
0.0343679
0.0320913
0.0297952
0.0274811
0.0251503
0.0228042
0.0204443
0.018072
0.0156887
0.0132959
0.0108951
0.00848761
0.00607502
0.00365875
0.00124027
-0.00117895
-0.00359745
-0.00601376
-0.00842641
-0.0108339
-0.0132349
-0.0156278
-0.0180111
-0.0203836
-0.0227437
-0.0250899
-0.0274209
-0.0297352
-0.0320315
-0.0343083
-0.0365643
-0.0387981
-0.0410083
-0.0431936
-0.0453527
-0.0474842
-0.0495869
-0.0516594
-0.0537006
-0.0557092
-0.057684
-0.0596237
-0.0615272
-0.0633934
-0.065221
-0.0670091
-0.0687564
-0.070462
-0.0721249
-0.0737439
-0.0753181
-0.0768466
-0.0783285
-0.0797627
-0.0811486
-0.0824852
-0.0837716
-0.0850073
-0.0861912
-0.0873229
-0.0884015
-0.0894265
-0.0903972
-0.0913129
-0.0921732
-0.0929776
-0.0937255
-0.0944165
-0.0950501
-0.0956261
-0.0961439
-0.0966034
-0.0970043
-0.0973462
-0.097629
-0.0978526
-0.0980167
-0.0981213
-0.0981664
-0.0981516
-0.0980775
-0.0979438
-0.0977506
-0.097498
-0.0971863
-0.0968155
-0.096386
-0.0958979
-0.0953516
-0.0947474
-0.0940857
-0.0933669
-0.0925913
-0.0917596
-0.0908721
-0.0899294
-0.0889322
-0.0878809
-0.0867763
-0.085619
-0.0844097
-0.0831491
-0.0818381
-0.0804774
-0.0790678
-0.0776102
-0.0761054
-0.0745545
-0.0729583
-0.0713178
-0.069634
-0.0679078
-0.0661405
-0.064333
-0.0624865
-0.060602
-0.0586807
-0.0567237
-0.0547324
-0.0527077
-0.0506511
-0.0485638
-0.0464469
-0.0443018
-0.0421299
-0.0399323
-0.0377105
-0.0354658
-0.0331996
-0.0309132
-0.028608
-0.0262855
-0.023947
-0.0215939
-0.0192278
-0.0168499
-0.0144618
-0.012065
-0.00966079
-0.00725074
-0.00483628
-0.00241887
0
0
0.00302126
0.00604069
0.00905646
0.0120667
0.0150697
0.0180635
0.0210464
0.0240164
0.0269719
0.0299111
0.0328321
0.0357331
0.0386125
0.0414684
0.0442992
0.0471031
0.0498784
0.0526234
0.0553365
0.0580159
0.0606602
0.0632677
0.0658367
0.0683658
0.0708534
0.073298
0.0756981
0.0780523
0.0803591
0.0826171
0.0848249
0.0869813
0.0890849
0.0911344
0.0931286
0.0950662
0.0969462
0.0987673
0.100528
0.102229
0.103867
0.105442
0.106953
0.108399
0.109779
0.111093
0.112339
0.113517
0.114626
0.115666
0.116635
0.117534
0.118361
0.119116
0.1198
0.12041
0.120947
0.121411
0.121801
0.122117
0.122359
0.122527
0.122621
0.12264
0.122584
0.122454
0.12225
0.121972
0.12162
0.121193
0.120694
0.12012
0.119475
0.118756
0.117966
0.117103
0.11617
0.115166
0.114093
0.11295
0.111738
0.110459
0.109113
0.1077
0.106222
0.10468
0.103074
0.101405
0.0996753
0.0978847
0.0960348
0.0941265
0.0921611
0.0901398
0.0880637
0.0859343
0.0837526
0.0815201
0.0792382
0.0769081
0.0745314
0.0721094
0.0696437
0.0671357
0.064587
0.0619991
0.0593735
0.0567119
0.0540159
0.0512871
0.0485272
0.0457379
0.0429207
0.0400776
0.0372101
0.0343201
0.0314092
0.0284793
0.0255321
0.0225694
0.019593
0.0166048
0.0136064
0.0105999
0.00758686
0.00456927
0.00154892
-0.00147235
-0.00449273
-0.00751037
-0.0105234
-0.0135301
-0.0165285
-0.0195169
-0.0224935
-0.0254563
-0.0284037
-0.0313338
-0.0342449
-0.0371352
-0.040003
-0.0428464
-0.0456638
-0.0484535
-0.0512137
-0.0539429
-0.0566392
-0.0593012
-0.0619272
-0.0645155
-0.0670647
-0.0695732
-0.0720394
-0.0744618
-0.076839
-0.0791696
-0.0814521
-0.0836851
-0.0858673
-0.0879974
-0.090074
-0.092096
-0.094062
-0.0959709
-0.0978215
-0.0996127
-0.101343
-0.103013
-0.104619
-0.106162
-0.107641
-0.109054
-0.110401
-0.111681
-0.112894
-0.114037
-0.115112
-0.116116
-0.11705
-0.117913
-0.118705
-0.119424
-0.120071
-0.120644
-0.121145
-0.121572
-0.121925
-0.122204
-0.122409
-0.12254
-0.122596
-0.122578
-0.122485
-0.122318
-0.122077
-0.121762
-0.121372
-0.120909
-0.120373
-0.119763
-0.119081
-0.118327
-0.1175
-0.116602
-0.115634
-0.114595
-0.113487
-0.112309
-0.111064
-0.109751
-0.108372
-0.106926
-0.105416
-0.103842
-0.102205
-0.100505
-0.0987448
-0.0969244
-0.0950452
-0.0931083
-0.0911148
-0.0890661
-0.0869632
-0.0848075
-0.0826004
-0.0803431
-0.078037
-0.0756835
-0.0732841
-0.0708401
-0.0683532
-0.0658247
-0.0632563
-0.0606494
-0.0580058
-0.0553269
-0.0526144
-0.04987
-0.0470952
-0.0442919
-0.0414617
-0.0386063
-0.0357275
-0.0328269
-0.0299065
-0.0269678
-0.0240128
-0.0210432
-0.0180608
-0.0150675
-0.012065
-0.00905517
-0.00603984
-0.00302084
0
0
0.00362148
0.00724076
0.0108557
0.014464
0.0180635
0.0216521
0.0252275
0.0287876
0.0323303
0.0358533
0.0393546
0.042832
0.0462834
0.0497067
0.0530999
0.0564608
0.0597874
0.0630778
0.0663298
0.0695416
0.0727112
0.0758367
0.0789162
0.0819477
0.0849295
0.0878597
0.0907367
0.0935585
0.0963236
0.0990302
0.101677
0.104261
0.106783
0.10924
0.11163
0.113953
0.116206
0.118389
0.1205
0.122538
0.124501
0.126389
0.1282
0.129934
0.131588
0.133163
0.134657
0.136069
0.137398
0.138645
0.139807
0.140884
0.141875
0.142781
0.143599
0.144331
0.144975
0.145531
0.145999
0.146378
0.146668
0.146869
0.146981
0.147004
0.146937
0.146782
0.146537
0.146203
0.145781
0.14527
0.144671
0.143984
0.14321
0.142349
0.141401
0.140368
0.139249
0.138046
0.136759
0.135389
0.133937
0.132403
0.13079
0.129096
0.127325
0.125476
0.123551
0.121551
0.119477
0.117331
0.115113
0.112826
0.11047
0.108047
0.105559
0.103006
0.100391
0.0977153
0.09498
0.092187
0.0893381
0.086435
0.0834794
0.0804732
0.0774181
0.0743161
0.0711689
0.0679785
0.0647469
0.061476
0.0581678
0.0548243
0.0514476
0.0480396
0.0446024
0.0411382
0.0376491
0.0341371
0.0306044
0.0270531
0.0234854
0.0199035
0.0163095
0.0127057
0.00909409
0.00547701
0.00185663
-0.00176487
-0.00538529
-0.00900242
-0.0126141
-0.0162181
-0.0198122
-0.0233943
-0.0269621
-0.0305136
-0.0340465
-0.0375588
-0.0410482
-0.0445127
-0.0479501
-0.0513584
-0.0547356
-0.0580795
-0.0613881
-0.0646594
-0.0678914
-0.0710823
-0.0742299
-0.0773325
-0.0803881
-0.0833949
-0.086351
-0.0892547
-0.0921042
-0.0948978
-0.0976337
-0.10031
-0.102926
-0.105479
-0.107969
-0.110392
-0.112749
-0.115037
-0.117255
-0.119402
-0.121477
-0.123478
-0.125403
-0.127253
-0.129025
-0.130719
-0.132334
-0.133869
-0.135322
-0.136692
-0.13798
-0.139184
-0.140304
-0.141338
-0.142287
-0.143149
-0.143924
-0.144612
-0.145212
-0.145724
-0.146147
-0.146482
-0.146728
-0.146884
-0.146952
-0.14693
-0.146819
-0.146619
-0.146329
-0.145951
-0.145485
-0.14493
-0.144287
-0.143556
-0.142738
-0.141834
-0.140843
-0.139767
-0.138606
-0.137361
-0.136033
-0.134621
-0.133129
-0.131555
-0.129901
-0.128169
-0.126359
-0.124472
-0.122509
-0.120472
-0.118362
-0.11618
-0.113927
-0.111606
-0.109216
-0.10676
-0.10424
-0.101656
-0.0990102
-0.0963044
-0.0935402
-0.0907191
-0.087843
-0.0849135
-0.0819325
-0.0789017
-0.075823
-0.0726983
-0.0695295
-0.0663184
-0.063067
-0.0597773
-0.0564514
-0.0530911
-0.0496987
-0.046276
-0.0428252
-0.0393485
-0.0358478
-0.0323254
-0.0287833
-0.0252238
-0.0216489
-0.0180609
-0.0144619
-0.0108541
-0.00723974
-0.00362097
0
0
0.0042195
0.00843644
0.0126483
0.0168524
0.0210464
0.0252275
0.0293934
0.0335414
0.037669
0.0417738
0.0458533
0.0499049
0.0539262
0.0579148
0.0618683
0.0657842
0.0696602
0.0734939
0.077283
0.0810252
0.0847182
0.0883597
0.0919477
0.0954798
0.098954
0.102368
0.10572
0.109008
0.11223
0.115383
0.118467
0.121478
0.124416
0.127278
0.130063
0.13277
0.135395
0.137939
0.140398
0.142773
0.14506
0.14726
0.14937
0.15139
0.153318
0.155152
0.156893
0.158538
0.160087
0.161539
0.162893
0.164148
0.165303
0.166358
0.167312
0.168165
0.168915
0.169563
0.170108
0.170549
0.170887
0.171122
0.171252
0.171279
0.171201
0.17102
0.170735
0.170346
0.169854
0.169259
0.168561
0.16776
0.166858
0.165855
0.164751
0.163547
0.162243
0.160842
0.159342
0.157746
0.156054
0.154267
0.152387
0.150414
0.14835
0.146196
0.143953
0.141623
0.139207
0.136706
0.134122
0.131457
0.128712
0.125889
0.12299
0.120016
0.116969
0.113851
0.110664
0.10741
0.104091
0.100708
0.0972645
0.0937618
0.0902023
0.086588
0.0829211
0.0792039
0.0754387
0.0716277
0.0677732
0.0638775
0.0599432
0.0559724
0.0519677
0.0479314
0.0438661
0.0397742
0.0356581
0.0315204
0.0273636
0.0231902
0.0190027
0.0148037
0.0105958
0.00638143
0.0021632
-0.00205631
-0.00627458
-0.010489
-0.0146971
-0.0188962
-0.0230838
-0.0272574
-0.0314144
-0.0355523
-0.0396687
-0.0437609
-0.0478265
-0.0518631
-0.0558682
-0.0598393
-0.0637741
-0.0676702
-0.0715252
-0.0753367
-0.0791025
-0.0828202
-0.0864876
-0.0901025
-0.0936627
-0.097166
-0.10061
-0.103993
-0.107314
-0.110568
-0.113756
-0.116875
-0.119922
-0.122897
-0.125798
-0.128621
-0.131367
-0.134033
-0.136618
-0.139119
-0.141536
-0.143868
-0.146111
-0.148267
-0.150332
-0.152305
-0.154187
-0.155974
-0.157667
-0.159265
-0.160765
-0.162168
-0.163473
-0.164678
-0.165783
-0.166787
-0.167691
-0.168492
-0.169191
-0.169788
-0.170281
-0.170671
-0.170957
-0.17114
-0.171218
-0.171192
-0.171063
-0.17083
-0.170493
-0.170052
-0.169509
-0.168862
-0.168113
-0.167262
-0.166309
-0.165255
-0.164101
-0.162847
-0.161494
-0.160044
-0.158496
-0.156852
-0.155112
-0.153279
-0.151352
-0.149333
-0.147224
-0.145026
-0.142739
-0.140366
-0.137907
-0.135365
-0.13274
-0.130035
-0.127251
-0.12439
-0.121453
-0.118442
-0.11536
-0.112207
-0.108987
-0.1057
-0.102349
-0.0989354
-0.0954621
-0.0919309
-0.0883438
-0.0847031
-0.0810109
-0.0772696
-0.0734813
-0.0696485
-0.0657733
-0.0618582
-0.0579055
-0.0539176
-0.049897
-0.0458461
-0.0417674
-0.0376633
-0.0335363
-0.029389
-0.0252238
-0.0210433
-0.01685
-0.0126465
-0.00843525
-0.00421891
0
0
0.00481496
0.009627
0.0144332
0.0192306
0.0240164
0.0287876
0.0335414
0.0382748
0.0429849
0.047669
0.0523241
0.0569475
0.0615364
0.0660878
0.0705992
0.0750677
0.0794907
0.0838654
0.0881892
0.0924595
0.0966736
0.100829
0.104923
0.108954
0.112918
0.116814
0.120639
0.124391
0.128068
0.131666
0.135185
0.138621
0.141974
0.14524
0.148418
0.151506
0.154502
0.157405
0.160211
0.162921
0.165531
0.168041
0.17045
0.172754
0.174954
0.177048
0.179034
0.180911
0.182679
0.184336
0.185881
0.187313
0.188631
0.189835
0.190923
0.191896
0.192752
0.193492
0.194113
0.194617
0.195003
0.195271
0.19542
0.19545
0.195361
0.195154
0.194829
0.194386
0.193824
0.193145
0.192348
0.191435
0.190405
0.18926
0.188001
0.186627
0.185139
0.18354
0.181829
0.180007
0.178076
0.176038
0.173892
0.171641
0.169285
0.166827
0.164268
0.161609
0.158852
0.155998
0.15305
0.150009
0.146876
0.143655
0.140346
0.136953
0.133476
0.129918
0.126281
0.122568
0.11878
0.11492
0.110991
0.106994
0.102932
0.0988073
0.094623
0.0903812
0.0860846
0.0817358
0.0773374
0.072892
0.0684024
0.0638713
0.0593014
0.0546956
0.0500565
0.0453871
0.0406902
0.0359686
0.0312252
0.0264628
0.0216844
0.0168929
0.0120911
0.00728197
0.00246847
-0.00234651
-0.00716006
-0.0119692
-0.0167711
-0.0215628
-0.0263414
-0.031104
-0.0358476
-0.0405695
-0.0452668
-0.0499365
-0.0545759
-0.0591821
-0.0637524
-0.0682839
-0.072774
-0.0772199
-0.0816189
-0.0859683
-0.0902655
-0.0945079
-0.0986928
-0.102818
-0.10688
-0.110878
-0.114809
-0.118669
-0.122458
-0.126172
-0.129809
-0.133368
-0.136846
-0.140241
-0.14355
-0.146773
-0.149906
-0.152948
-0.155897
-0.158752
-0.16151
-0.16417
-0.166731
-0.16919
-0.171547
-0.173799
-0.175946
-0.177986
-0.179918
-0.18174
-0.183452
-0.185053
-0.186542
-0.187917
-0.189178
-0.190325
-0.191355
-0.19227
-0.193068
-0.193748
-0.194311
-0.194756
-0.195083
-0.195291
-0.195381
-0.195351
-0.195204
-0.194938
-0.194553
-0.19405
-0.19343
-0.192692
-0.191837
-0.190866
-0.189778
-0.188576
-0.187259
-0.185828
-0.184285
-0.182629
-0.180863
-0.178987
-0.177002
-0.174909
-0.172711
-0.170408
-0.168001
-0.165492
-0.162882
-0.160174
-0.157369
-0.154468
-0.151473
-0.148386
-0.145209
-0.141944
-0.138592
-0.135157
-0.13164
-0.128042
-0.124367
-0.120616
-0.116792
-0.112897
-0.108934
-0.104904
-0.100811
-0.0966565
-0.0924433
-0.088174
-0.0838511
-0.0794773
-0.0750553
-0.0705876
-0.0660771
-0.0615265
-0.0569385
-0.052316
-0.0476617
-0.0429784
-0.038269
-0.0335364
-0.0287834
-0.0240129
-0.0192279
-0.0144311
-0.00962564
-0.00481429
0
0
0.00540749
0.0108117
0.0162094
0.0215972
0.0269719
0.0323303
0.037669
0.0429849
0.0482747
0.0535352
0.0587632
0.0639556
0.0691091
0.0742207
0.0792873
0.0843057
0.0892729
0.094186
0.0990419
0.103838
0.10857
0.113237
0.117835
0.122362
0.126814
0.13119
0.135486
0.139699
0.143828
0.147869
0.151821
0.15568
0.159445
0.163114
0.166683
0.170151
0.173516
0.176775
0.179927
0.18297
0.185902
0.188721
0.191425
0.194014
0.196484
0.198835
0.201066
0.203175
0.20516
0.20702
0.208755
0.210364
0.211844
0.213196
0.214419
0.215511
0.216473
0.217303
0.218001
0.218567
0.219001
0.219301
0.219468
0.219502
0.219403
0.219171
0.218805
0.218307
0.217676
0.216913
0.216019
0.214993
0.213837
0.212551
0.211136
0.209593
0.207923
0.206126
0.204205
0.202159
0.199991
0.197701
0.195291
0.192763
0.190118
0.187357
0.184483
0.181497
0.1784
0.175195
0.171884
0.168469
0.164951
0.161333
0.157618
0.153806
0.149902
0.145906
0.141822
0.137651
0.133397
0.129062
0.124649
0.12016
0.115599
0.110967
0.106267
0.101504
0.0966783
0.0917943
0.0868546
0.0818622
0.0768201
0.0717314
0.0665991
0.0614265
0.0562166
0.0509725
0.0456976
0.0403949
0.0350678
0.0297193
0.0243529
0.0189717
0.013579
0.00817808
0.00277222
-0.00263529
-0.00804121
-0.0134422
-0.018835
-0.0242164
-0.0295831
-0.0349317
-0.0402591
-0.0455621
-0.0508374
-0.0560818
-0.0612921
-0.0664652
-0.0715979
-0.0766871
-0.0817297
-0.0867227
-0.0916631
-0.0965477
-0.101374
-0.106138
-0.110838
-0.115471
-0.120033
-0.124523
-0.128937
-0.133273
-0.137528
-0.141699
-0.145784
-0.149781
-0.153687
-0.157499
-0.161216
-0.164835
-0.168353
-0.17177
-0.175082
-0.178288
-0.181386
-0.184373
-0.187249
-0.190011
-0.192657
-0.195187
-0.197598
-0.199889
-0.202059
-0.204105
-0.206028
-0.207826
-0.209498
-0.211043
-0.212459
-0.213746
-0.214904
-0.215931
-0.216827
-0.217591
-0.218223
-0.218723
-0.21909
-0.219324
-0.219424
-0.219392
-0.219226
-0.218927
-0.218495
-0.217931
-0.217234
-0.216405
-0.215445
-0.214354
-0.213133
-0.211782
-0.210303
-0.208697
-0.206963
-0.205104
-0.20312
-0.201013
-0.198784
-0.196434
-0.193965
-0.191378
-0.188675
-0.185858
-0.182927
-0.179885
-0.176735
-0.173477
-0.170113
-0.166646
-0.163079
-0.159412
-0.155648
-0.15179
-0.147839
-0.143799
-0.139672
-0.135459
-0.131165
-0.126791
-0.122339
-0.117814
-0.113217
-0.108551
-0.10382
-0.0990248
-0.0941699
-0.0892579
-0.0842917
-0.0792743
-0.0742087
-0.0690981
-0.0639455
-0.0587541
-0.053527
-0.0482674
-0.0429785
-0.0376634
-0.0323255
-0.026968
-0.0215941
-0.0162071
-0.0108102
-0.00540674
0
0
0.00599675
0.0119899
0.0179757
0.0239507
0.0299111
0.0358533
0.0417738
0.047669
0.0535352
0.059369
0.0651667
0.0709249
0.07664
0.0823086
0.0879272
0.0934925
0.099001
0.104449
0.109835
0.115153
0.120401
0.125577
0.130676
0.135696
0.140633
0.145486
0.150249
0.154922
0.159501
0.163982
0.168365
0.172645
0.17682
0.180888
0.184846
0.188692
0.192424
0.196038
0.199534
0.202908
0.20616
0.209286
0.212285
0.215155
0.217895
0.220503
0.222976
0.225314
0.227516
0.229579
0.231503
0.233287
0.234929
0.236428
0.237784
0.238995
0.240062
0.240983
0.241757
0.242385
0.242865
0.243198
0.243384
0.243422
0.243311
0.243054
0.242648
0.242096
0.241396
0.24055
0.239558
0.238421
0.237139
0.235713
0.234144
0.232433
0.23058
0.228588
0.226457
0.224188
0.221784
0.219245
0.216572
0.213769
0.210835
0.207774
0.204586
0.201274
0.19784
0.194286
0.190615
0.186827
0.182926
0.178914
0.174793
0.170567
0.166236
0.161805
0.157276
0.152651
0.147934
0.143126
0.138232
0.133254
0.128195
0.123059
0.117847
0.112565
0.107213
0.101797
0.0963192
0.0907827
0.0851912
0.0795479
0.0738564
0.0681201
0.0623425
0.056527
0.0506773
0.0447968
0.0388891
0.0329579
0.0270066
0.021039
0.0150587
0.00906923
0.0030743
-0.00292248
-0.00891748
-0.014907
-0.0208875
-0.0268553
-0.0328067
-0.0387382
-0.0446462
-0.050527
-0.0563771
-0.062193
-0.0679711
-0.0737079
-0.0793999
-0.0850437
-0.0906359
-0.0961729
-0.101652
-0.107069
-0.11242
-0.117704
-0.122916
-0.128054
-0.133113
-0.138092
-0.142987
-0.147796
-0.152514
-0.15714
-0.16167
-0.166102
-0.170434
-0.174662
-0.178783
-0.182797
-0.186699
-0.190488
-0.194161
-0.197716
-0.201152
-0.204465
-0.207654
-0.210716
-0.213651
-0.216456
-0.21913
-0.221671
-0.224077
-0.226347
-0.228479
-0.230473
-0.232327
-0.23404
-0.235611
-0.237038
-0.238322
-0.239461
-0.240455
-0.241302
-0.242003
-0.242557
-0.242964
-0.243224
-0.243335
-0.243299
-0.243115
-0.242783
-0.242305
-0.241679
-0.240906
-0.239987
-0.238922
-0.237712
-0.236358
-0.23486
-0.23322
-0.231438
-0.229516
-0.227454
-0.225254
-0.222917
-0.220445
-0.21784
-0.215101
-0.212233
-0.209235
-0.20611
-0.202861
-0.199488
-0.195994
-0.19238
-0.18865
-0.184806
-0.180849
-0.176783
-0.172609
-0.16833
-0.163949
-0.159469
-0.154892
-0.15022
-0.145458
-0.140607
-0.135671
-0.130652
-0.125554
-0.12038
-0.115133
-0.109816
-0.104432
-0.0989844
-0.093477
-0.0879128
-0.0822952
-0.0766277
-0.0709136
-0.0651565
-0.0593598
-0.0535271
-0.0476618
-0.0417676
-0.0358481
-0.0299067
-0.0239472
-0.0179732
-0.0119882
-0.00599591
0
0
0.00658236
0.0131607
0.0197311
0.0262896
0.0328321
0.0393546
0.0458533
0.0523241
0.0587633
0.0651667
0.0715306
0.0778511
0.0841243
0.0903465
0.0965138
0.102623
0.108669
0.11465
0.12056
0.126398
0.132159
0.13784
0.143437
0.148947
0.154367
0.159693
0.164922
0.170051
0.175077
0.179996
0.184807
0.189505
0.194088
0.198553
0.202897
0.207119
0.211215
0.215182
0.219019
0.222723
0.226292
0.229724
0.233016
0.236167
0.239174
0.242036
0.244751
0.247318
0.249734
0.251999
0.254111
0.256069
0.257871
0.259517
0.261005
0.262335
0.263505
0.264516
0.265366
0.266055
0.266582
0.266948
0.267152
0.267193
0.267072
0.266789
0.266344
0.265738
0.26497
0.264042
0.262953
0.261704
0.260297
0.258732
0.257009
0.255131
0.253098
0.250911
0.248572
0.246082
0.243442
0.240655
0.237722
0.234644
0.231424
0.228064
0.224565
0.22093
0.217161
0.21326
0.209229
0.205072
0.20079
0.196386
0.191863
0.187223
0.18247
0.177606
0.172635
0.167558
0.16238
0.157103
0.151731
0.146267
0.140714
0.135076
0.129356
0.123557
0.117683
0.111738
0.105725
0.0996481
0.0935105
0.0873162
0.0810689
0.0747724
0.0684305
0.0620472
0.0556262
0.0491714
0.0426868
0.0361764
0.029644
0.0230936
0.0165292
0.00995488
0.0033745
-0.00320789
-0.00978834
-0.0163628
-0.0229273
-0.0294779
-0.0360105
-0.0425213
-0.0490062
-0.0554613
-0.0618827
-0.0682665
-0.0746089
-0.0809059
-0.0871538
-0.0933487
-0.099487
-0.105565
-0.111578
-0.117524
-0.123399
-0.129199
-0.13492
-0.140559
-0.146113
-0.151578
-0.156951
-0.162229
-0.167408
-0.172485
-0.177458
-0.182323
-0.187078
-0.191718
-0.196243
-0.200648
-0.204931
-0.20909
-0.213122
-0.217024
-0.220795
-0.224432
-0.227932
-0.231294
-0.234516
-0.237595
-0.240529
-0.243318
-0.245959
-0.248451
-0.250792
-0.25298
-0.255015
-0.256895
-0.258619
-0.260186
-0.261595
-0.262846
-0.263936
-0.264867
-0.265636
-0.266244
-0.266691
-0.266976
-0.267098
-0.267058
-0.266856
-0.266493
-0.265967
-0.26528
-0.264432
-0.263423
-0.262254
-0.260926
-0.25944
-0.257796
-0.255995
-0.254039
-0.251929
-0.249666
-0.247251
-0.244687
-0.241973
-0.239113
-0.236107
-0.232958
-0.229668
-0.226238
-0.222671
-0.218969
-0.215133
-0.211167
-0.207073
-0.202853
-0.19851
-0.194047
-0.189465
-0.184769
-0.17996
-0.175042
-0.170018
-0.16489
-0.159663
-0.154338
-0.14892
-0.143411
-0.137815
-0.132136
-0.126376
-0.12054
-0.11463
-0.108651
-0.102606
-0.096498
-0.0903318
-0.0841108
-0.0778388
-0.0715194
-0.0651566
-0.0587543
-0.0523163
-0.0458465
-0.0393488
-0.0328273
-0.0262858
-0.0197283
-0.0131589
-0.00658145
0
0
0.00716399
0.0143236
0.0214746
0.0286125
0.0357331
0.042832
0.0499049
0.0569475
0.0639556
0.0709249
0.0778511
0.08473
0.0915576
0.0983295
0.105042
0.11169
0.118271
0.12478
0.131213
0.137567
0.143837
0.15002
0.156111
0.162108
0.168007
0.173804
0.179495
0.185077
0.190547
0.195901
0.201136
0.206249
0.211237
0.216097
0.220826
0.22542
0.229878
0.234196
0.238372
0.242403
0.246288
0.250022
0.253605
0.257034
0.260307
0.263422
0.266377
0.269171
0.271801
0.274266
0.276564
0.278695
0.280657
0.282448
0.284067
0.285515
0.286789
0.287889
0.288814
0.289564
0.290138
0.290536
0.290757
0.290802
0.290671
0.290363
0.289879
0.289219
0.288383
0.287372
0.286187
0.284829
0.283297
0.281593
0.279719
0.277674
0.275461
0.273081
0.270536
0.267825
0.264953
0.261919
0.258727
0.255378
0.251873
0.248216
0.244408
0.240451
0.236349
0.232103
0.227717
0.223192
0.218531
0.213739
0.208816
0.203766
0.198593
0.1933
0.187889
0.182364
0.176728
0.170985
0.165138
0.159192
0.153148
0.147011
0.140786
0.134475
0.128082
0.121611
0.115067
0.108453
0.101773
0.0950315
0.0882322
0.0813793
0.0744771
0.0675297
0.0605413
0.0535162
0.0464586
0.0393729