# vtk DataFile Version 3.0
Scalar Field Data
ASCII
DATASET STRUCTURED_POINTS
DIMENSIONS 256 256 1
ORIGIN 0 0 0
SPACING 0.00392157 0.00392157 1
POINT_DATA 65536
SCALARS scalars double
LOOKUP_TABLE default
0
0
0
0
0
0
0
0
0
0
0
0
0
0
0
0
0
0
0
0
0
0
0
0
0
0
0
0
0
0
0
0
0
0
0
0
0
0
0
0
0
0
0
0
0
0
0
0
0
0
0
0
0
0
0
0
0
0
0
0
0
0
0
0
0
0
0
0
0
0
0
0
0
0
0
0
0
0
0
0
0
0
0
0
0
0
0
0
0
0
0
0
0
0
0
0
0
0
0
0
0
0
0
0
0
0
0
0
0
0
0
0
0
0
0
0
0
0
0
0
0
0
0
0
0
0
0
0
0
0
0
0
0
0
0
0
0
0
0
0
0
0
0
0
0
0
0
0
0
0
0
0
0
0
0
0
0
0
0
0
0
0
0
0
0
0
0
0
0
0
0
0
0
0
0
0
0
0
0
0
0
0
0
0
0
0
0
0
0
0
0
0
0
0
0
0
0
0
0
0
0
0
0
0
0
0
0
0
0
0
0
0
0
0
0
0
0
0
0
0
0
0
0
0
0
0
0
0
0
0
0
0
0
0
0
0
0
0
0
0
0
0
0
0
0
0
0
0
0
0
0
0
0
0
0
0
0
0.000604767
0.00120917
0.00181284
0.00241541
0.00301651
0.00361579
0.00421287
0.0048074
0.00539901
0.00598734
0.00657204
0.00715275
0.00772912
0.0083008
0.00886745
0.00942871
0.00998425
0.0105337
0.0110768
0.0116132
0.0121425
0.0126644
0.0131787
0.013685
0.0141829
0.0146723
0.0151527
0.0156239
0.0160857
0.0165377
0.0169797
0.0174113
0.0178324
0.0182427
0.0186419
0.0190297
0.0194061
0.0197706
0.0201231
0.0204635
0.0207914
0.0211067
0.0214091
0.0216986
0.0219749
0.0222379
0.0224874
0.0227232
0.0229452
0.0231533
0.0233474
0.0235273
0.0236929
0.0238441
0.0239808
0.024103
0.0242106
0.0243034
0.0243815
0.0244449
0.0244933
0.0245269
0.0245456
0.0245495
0.0245384
0.0245125
0.0244717
0.0244161
0.0243456
0.0242603
0.0241603
0.0240457
0.0239165
0.0237727
0.0236145
0.023442
0.0232552
0.0230544
0.0228395
0.0226108
0.0223684
0.0221123
0.0218429
0.0215602
0.0212644
0.0209557
0.0206343
0.0203003
0.0199541
0.0195957
0.0192254
0.0188435
0.0184501
0.0180456
0.01763
0.0172038
0.0167672
0.0163203
0.0158636
0.0153972
0.0149215
0.0144367
0.0139432
0.0134412
0.012931
0.012413
0.0118875
0.0113547
0.0108151
0.0102689
0.00971645
0.00915812
0.00859423
0.00802513
0.00745116
0.00687267
0.00629001
0.00570354
0.00511361
0.00452057
0.0039248
0.00332664
0.00272647
0.00212465
0.00152154
0.000917507
0.000312924
-0.000291846
-0.000896438
-0.00150048
-0.00210361
-0.00270546
-0.00330567
-0.00390386
-0.00449968
-0.00509276
-0.00568275
-0.00626928
-0.00685201
-0.00743057
-0.00800462
-0.0085738
-0.00913777
-0.0096962
-0.0102487
-0.010795
-0.0113348
-0.0118677
-0.0123933
-0.0129114
-0.0134217
-0.0139239
-0.0144175
-0.0149024
-0.0153783
-0.0158448
-0.0163017
-0.0167487
-0.0171856
-0.017612
-0.0180277
-0.0184324
-0.018826
-0.0192081
-0.0195785
-0.0199371
-0.0202836
-0.0206177
-0.0209393
-0.0212482
-0.0215442
-0.0218271
-0.0220968
-0.022353
-0.0225957
-0.0228246
-0.0230397
-0.0232408
-0.0234278
-0.0236005
-0.0237589
-0.0239029
-0.0240324
-0.0241473
-0.0242475
-0.024333
-0.0244037
-0.0244596
-0.0245006
-0.0245268
-0.0245381
-0.0245344
-0.0245159
-0.0244826
-0.0244343
-0.0243713
-0.0242934
-0.0242008
-0.0240935
-0.0239715
-0.023835
-0.023684
-0.0235187
-0.023339
-0.0231452
-0.0229373
-0.0227155
-0.0224799
-0.0222307
-0.0219679
-0.0216918
-0.0214026
-0.0211003
-0.0207852
-0.0204575
-0.0201174
-0.0197651
-0.0194007
-0.0190246
-0.0186369
-0.018238
-0.0178279
-0.017407
-0.0169755
-0.0165337
-0.0160819
-0.0156203
-0.0151493
-0.014669
-0.0141798
-0.013682
-0.0131759
-0.0126618
-0.01214
-0.0116109
-0.0110747
-0.0105317
-0.00998237
-0.00942697
-0.00886584
-0.00829933
-0.00772777
-0.00715152
-0.00657093
-0.00598635
-0.00539813
-0.00480663
-0.00421221
-0.00361523
-0.00301606
-0.00241505
-0.00181257
-0.001209
-0.000604682
0
0
0.00120917
0.00241761
0.00362458
0.00482935
0.0060312
0.00722939
0.00842319
0.00961189
0.0107947
0.0119711
0.0131401
0.0143012
0.0154536
0.0165966
0.0177295
0.0188517
0.0199625
0.0210611
0.0221469
0.0232193
0.0242776
0.0253212
0.0263494
0.0273616
0.0283573
0.0293357
0.0302962
0.0312384
0.0321617
0.0330654
0.0339491
0.0348121
0.035654
0.0364743
0.0372724
0.038048
0.0388004
0.0395292
0.0402341
0.0409146
0.0415702
0.0422006
0.0428053
0.0433841
0.0439366
0.0444624
0.0449612
0.0454327
0.0458766
0.0462927
0.0466807
0.0470403
0.0473714
0.0476738
0.0479472
0.0481915
0.0484065
0.0485922
0.0487483
0.0488749
0.0489718
0.049039
0.0490764
0.0490841
0.049062
0.0490102
0.0489286
0.0488173
0.0486764
0.048506
0.0483061
0.0480769
0.0478185
0.047531
0.0472148
0.0468698
0.0464964
0.0460948
0.0456652
0.0452079
0.0447232
0.0442113
0.0436726
0.0431073
0.0425159
0.0418987
0.0412561
0.0405884
0.0398961
0.0391796
0.0384393
0.0376756
0.0368891
0.0360802
0.0352494
0.0343972
0.0335242
0.0326308
0.0317175
0.0307851
0.0298339
0.0288647
0.0278779
0.0268742
0.0258542
0.0248185
0.0237677
0.0227026
0.0216236
0.0205315
0.019427
0.0183107
0.0171833
0.0160454
0.0148978
0.0137412
0.0125762
0.0114036
0.0102241
0.00903841
0.00784721
0.00665127
0.00545129
0.004248
0.00304215
0.00183446
0.000625655
-0.000583519
-0.00179234
-0.00300006
-0.00420596
-0.00540929
-0.00660934
-0.00780536
-0.00899664
-0.0101824
-0.0113621
-0.0125348
-0.0136999
-0.0148567
-0.0160044
-0.0171424
-0.01827
-0.0193865
-0.0204913
-0.0215836
-0.0226627
-0.0237281
-0.0247791
-0.0258151
-0.0268353
-0.0278393
-0.0288263
-0.0297959
-0.0307473
-0.0316801
-0.0325936
-0.0334874
-0.0343608
-0.0352133
-0.0360444
-0.0368537
-0.0376406
-0.0384046
-0.0391453
-0.0398622
-0.0405549
-0.0412229
-0.041866
-0.0424836
-0.0430754
-0.0436411
-0.0441802
-0.0446925
-0.0451777
-0.0456355
-0.0460655
-0.0464676
-0.0468414
-0.0471868
-0.0475035
-0.0477914
-0.0480503
-0.04828
-0.0484803
-0.0486513
-0.0487926
-0.0489044
-0.0489864
-0.0490387
-0.0490613
-0.049054
-0.0490171
-0.0489504
-0.0488539
-0.0487278
-0.0485721
-0.0483869
-0.0481724
-0.0479285
-0.0476556
-0.0473537
-0.0470231
-0.0466639
-0.0462764
-0.0458608
-0.0454173
-0.0449463
-0.0444479
-0.0439226
-0.0433706
-0.0427922
-0.0421879
-0.0415579
-0.0409027
-0.0402227
-0.0395182
-0.0387898
-0.0380377
-0.0372626
-0.0364649
-0.035645
-0.0348035
-0.0339408
-0.0330575
-0.0321541
-0.0312312
-0.0302894
-0.0293291
-0.0283511
-0.0273558
-0.0263439
-0.025316
-0.0242727
-0.0232147
-0.0221426
-0.0210571
-0.0199587
-0.0188482
-0.0177263
-0.0165936
-0.0154509
-0.0142987
-0.0131379
-0.0119691
-0.010793
-0.00961035
-0.00842187
-0.00722828
-0.00603029
-0.00482864
-0.00362405
-0.00241726
-0.001209
0
0
0.00181284
0.00362458
0.00543413
0.00724038
0.00904224
0.0108386
0.0126284
0.0144106
0.0161839
0.0179475
0.0197002
0.0214409
0.0231687
0.0248823
0.0265809
0.0282633
0.0299286
0.0315757
0.0332036
0.0348114
0.0363981
0.0379627
0.0395042
0.0410218
0.0425144
0.0439813
0.0454214
0.046834
0.0482182
0.0495731
0.0508979
0.0521918
0.0534541
0.0546838
0.0558804
0.0570431
0.0581712
0.0592639
0.0603207
0.0613409
0.0623238
0.0632689
0.0641756
0.0650434
0.0658716
0.0666599
0.0674077
0.0681146
0.0687802
0.069404
0.0699857
0.0705249
0.0710213
0.0714745
0.0718844
0.0722507
0.0725731
0.0728515
0.0730856
0.0732754
0.0734207
0.0735214
0.0735775
0.073589
0.0735559
0.0734782
0.0733559
0.0731891
0.0729778
0.0727222
0.0724226
0.0720789
0.0716915
0.0712606
0.0707864
0.0702692
0.0697094
0.0691073
0.0684633
0.0677777
0.0670509
0.0662835
0.0654758
0.0646284
0.0637417
0.0628164
0.0618529
0.0608519
0.0598139
0.0587397
0.0576298
0.0564849
0.0553057
0.054093
0.0528474
0.0515698
0.0502609
0.0489214
0.0475523
0.0461543
0.0447283
0.0432751
0.0417957
0.0402909
0.0387617
0.037209
0.0356336
0.0340367
0.0324191
0.0307818
0.0291258
0.0274522
0.0257619
0.024056
0.0223354
0.0206014
0.0188548
0.0170968
0.0153284
0.0135508
0.0117649
0.00997186
0.0081728
0.00636878
0.00456092
0.00275029
0.000938003
-0.000874843
-0.00268716
-0.00449783
-0.00630576
-0.00810985
-0.00990901
-0.0117021
-0.0134882
-0.015266
-0.0170345
-0.0187927
-0.0205395
-0.0222737
-0.0239945
-0.0257007
-0.0273912
-0.0290651
-0.0307214
-0.032359
-0.0339769
-0.0355742
-0.0371499
-0.0387031
-0.0402327
-0.0417379
-0.0432177
-0.0446713
-0.0460977
-0.0474962
-0.0488658
-0.0502057
-0.0515151
-0.0527933
-0.0540394
-0.0552526
-0.0564323
-0.0575778
-0.0586883
-0.0597631
-0.0608016
-0.0618032
-0.0627673
-0.0636932
-0.0645805
-0.0654286
-0.0662369
-0.067005
-0.0677324
-0.0684187
-0.0690634
-0.0696662
-0.0702266
-0.0707445
-0.0712193
-0.0716509
-0.072039
-0.0723834
-0.0726838
-0.0729401
-0.073152
-0.0733196
-0.0734426
-0.073521
-0.0735548
-0.0735439
-0.0734885
-0.0733885
-0.0732439
-0.0730548
-0.0728214
-0.0725438
-0.0722221
-0.0718565
-0.0714474
-0.0709948
-0.0704991
-0.0699606
-0.0693796
-0.0687565
-0.0680916
-0.0673854
-0.0666382
-0.0658506
-0.065023
-0.0641559
-0.0632499
-0.0623054
-0.0613231
-0.0603036
-0.0592474
-0.0581553
-0.0570278
-0.0558657
-0.0546697
-0.0534405
-0.0521788
-0.0508855
-0.0495612
-0.0482069
-0.0468232
-0.0454111
-0.0439715
-0.0425051
-0.041013
-0.0394959
-0.0379548
-0.0363907
-0.0348045
-0.0331972
-0.0315696
-0.0299229
-0.0282581
-0.0265761
-0.0248779
-0.0231646
-0.0214373
-0.0196969
-0.0179446
-0.0161813
-0.0144083
-0.0126264
-0.0108369
-0.00904087
-0.0072393
-0.00543333
-0.00362406
-0.00181258
0
0
0.00241541
0.00482936
0.00724038
0.00964701
0.0120478
0.0144413
0.016826
0.0192005
0.0215633
0.0239131
0.0262484
0.0285677
0.0308697
0.033153
0.0354161
0.0376577
0.0398765
0.0420711
0.0442402
0.0463824
0.0484965
0.0505811
0.052635
0.054657
0.0566458
0.0586002
0.0605191
0.0624012
0.0642455
0.0660507
0.0678159
0.0695399
0.0712217
0.0728602
0.0744546
0.0760037
0.0775067
0.0789627
0.0803707
0.08173
0.0830397
0.0842989
0.085507
0.0866631
0.0877667
0.088817
0.0898134
0.0907553
0.0916421
0.0924732
0.0932482
0.0939667
0.0946281
0.095232
0.0957781
0.0962662
0.0966957
0.0970666
0.0973786
0.0976314
0.097825
0.0979592
0.098034
0.0980492
0.0980052
0.0979016
0.0977387
0.0975164
0.0972349
0.0968944
0.0964951
0.0960372
0.0955211
0.0949469
0.0943151
0.0936261
0.0928802
0.092078
0.0912198
0.0903063
0.089338
0.0883155
0.0872393
0.0861102
0.0849288
0.0836959
0.0824122
0.0810785
0.0796955
0.0782642
0.0767854
0.0752599
0.0736888
0.072073
0.0704134
0.0687111
0.0669671
0.0651824
0.0633582
0.0614955
0.0595955
0.0576594
0.0556882
0.0536833
0.0516457
0.0495769
0.0474779
0.0453501
0.0431948
0.0410133
0.0388069
0.036577
0.0343249
0.0320519
0.0297595
0.0274491
0.0251219
0.0227796
0.0204234
0.0180549
0.0156754
0.0132864
0.0108893
0.0084857
0.00607691
0.00366445
0.00124978
-0.00116564
-0.00358035
-0.00599287
-0.00840174
-0.0108055
-0.0132027
-0.0155918
-0.0179715
-0.0203402
-0.0226966
-0.0250392
-0.0273666
-0.0296773
-0.03197
-0.0342433
-0.0364958
-0.0387261
-0.0409329
-0.0431148
-0.0452706
-0.0473988
-0.0494982
-0.0515676
-0.0536056
-0.0556111
-0.0575828
-0.0595196
-0.0614202
-0.0632835
-0.0651083
-0.0668936
-0.0686383
-0.0703413
-0.0720016
-0.0736181
-0.0751899
-0.0767161
-0.0781957
-0.0796278
-0.0810115
-0.082346
-0.0836305
-0.0848643
-0.0860465
-0.0871764
-0.0882534
-0.0892768
-0.090246
-0.0911604
-0.0920194
-0.0928225
-0.0935693
-0.0942593
-0.094892
-0.095467
-0.0959841
-0.096443
-0.0968432
-0.0971846
-0.0974671
-0.0976903
-0.0978542
-0.0979587
-0.0980037
-0.0979892
-0.0979154
-0.0977821
-0.0975895
-0.0973376
-0.0970266
-0.0966567
-0.096228
-0.095741
-0.0951958
-0.0945928
-0.0939323
-0.0932148
-0.0924407
-0.0916105
-0.0907246
-0.0897836
-0.0887881
-0.0877387
-0.086636
-0.0854807
-0.0842735
-0.0830151
-0.0817063
-0.0803479
-0.0789407
-0.0774855
-0.0759833
-0.074435
-0.0728414
-0.0712036
-0.0695226
-0.0677993
-0.0660349
-0.0642304
-0.0623868
-0.0605054
-0.0585872
-0.0566335
-0.0546453
-0.052624
-0.0505707
-0.0484867
-0.0463732
-0.0442316
-0.0420631
-0.0398691
-0.0376508
-0.0354097
-0.0331471
-0.0308643
-0.0285628
-0.026244
-0.0239092
-0.0215598
-0.0191974
-0.0168233
-0.014439
-0.012046
-0.00964558
-0.00723932
-0.00482866
-0.00241507
0
0
0.00301651
0.0060312
0.00904224
0.0120478
0.015046
0.0180352
0.0210133
0.0239788
0.0269297
0.0298642
0.0327806
0.0356771
0.038552
0.0414035
0.0442299
0.0470294
0.0498003
0.0525411
0.0552499
0.0579253
0.0605654
0.0631688
0.0657339
0.0682591
0.0707428
0.0731836
0.07558
0.0779305
0.0802338
0.0824883
0.0846927
0.0868458
0.0889461
0.0909924
0.0929836
0.0949182
0.0967953
0.0986136
0.100372
0.10207
0.103705
0.105278
0.106786
0.10823
0.109609
0.11092
0.112165
0.113341
0.114448
0.115486
0.116454
0.117351
0.118177
0.118932
0.119614
0.120223
0.12076
0.121223
0.121612
0.121928
0.12217
0.122338
0.122431
0.12245
0.122395
0.122266
0.122062
0.121785
0.121433
0.121008
0.120509
0.119937
0.119293
0.118576
0.117787
0.116926
0.115995
0.114993
0.113921
0.11278
0.111571
0.110294
0.10895
0.10754
0.106064
0.104525
0.102922
0.101256
0.0995288
0.0977412
0.0958944
0.0939893
0.0920272
0.0900093
0.0879367
0.0858107
0.0836327
0.0814039
0.0791257
0.0767995
0.0744266
0.0720086
0.0695469
0.067043
0.0644984
0.0619147
0.0592934
0.0566361
0.0539444
0.05122
0.0484645
0.0456796
0.042867
0.0400284
0.0371655
0.0342801
0.0313739
0.0284486
0.0255061
0.0225481
0.0195764
0.0165929
0.0135993
0.0105975
0.00758922
0.00457639
0.00156079
-0.00145574
-0.00447138
-0.00748428
-0.0104926
-0.0134946
-0.0164883
-0.0194721
-0.0224439
-0.0254022
-0.028345
-0.0312706
-0.0341771
-0.0370629
-0.0399262
-0.0427652
-0.0455783
-0.0483636
-0.0511196
-0.0538445
-0.0565367
-0.0591946
-0.0618165
-0.0644009
-0.0669461
-0.0694507
-0.0719131
-0.0743318
-0.0767054
-0.0790324
-0.0813114
-0.083541
-0.0857198
-0.0878466
-0.0899201
-0.0919389
-0.0939019
-0.0958079
-0.0976557
-0.0994442
-0.101172
-0.102839
-0.104443
-0.105984
-0.10746
-0.108871
-0.110216
-0.111495
-0.112705
-0.113847
-0.11492
-0.115923
-0.116855
-0.117717
-0.118507
-0.119225
-0.119871
-0.120444
-0.120944
-0.12137
-0.121723
-0.122002
-0.122206
-0.122337
-0.122393
-0.122375
-0.122283
-0.122116
-0.121876
-0.121561
-0.121173
-0.120711
-0.120176
-0.119567
-0.118886
-0.118133
-0.117309
-0.116413
-0.115446
-0.114409
-0.113303
-0.112127
-0.110884
-0.109574
-0.108197
-0.106754
-0.105246
-0.103675
-0.10204
-0.100344
-0.0985861
-0.0967688
-0.0948928
-0.0929591
-0.0909689
-0.0889236
-0.0868242
-0.0846721
-0.0824685
-0.0802149
-0.0779126
-0.0755629
-0.0731674
-0.0707274
-0.0682445
-0.0657201
-0.0631558
-0.0605532
-0.0579138
-0.0552392
-0.052531
-0.049791
-0.0470207
-0.0442218
-0.0413961
-0.0385453
-0.035671
-0.0327751
-0.0298593
-0.0269253
-0.0239749
-0.02101
-0.0180324
-0.0150438
-0.012046
-0.00904092
-0.00603034
-0.00301609
0
0
0.00361579
0.00722939
0.0108386
0.0144413
0.0180352
0.0216181
0.025188
0.0287425
0.0322796
0.0357972
0.039293
0.0427649
0.046211
0.0496289
0.0530168
0.0563725
0.0596939
0.0629792
0.0662262
0.069433
0.0725977
0.0757183
0.0787929
0.0818198
0.084797
0.0877227
0.0905951
0.0934126
0.0961734
0.0988758
0.101518
0.104099
0.106617
0.109069
0.111456
0.113775
0.116025
0.118205
0.120312
0.122347
0.124308
0.126193
0.128001
0.129732
0.131384
0.132956
0.134448
0.135858
0.137185
0.138429
0.13959
0.140665
0.141655
0.142559
0.143377
0.144107
0.14475
0.145306
0.145773
0.146151
0.146441
0.146642
0.146754
0.146777
0.146711
0.146556
0.146312
0.145979
0.145558
0.145048
0.14445
0.143765
0.142992
0.142132
0.141187
0.140155
0.139039
0.137838
0.136553
0.135186
0.133736
0.132205
0.130594
0.128904
0.127136
0.12529
0.123368
0.121372
0.119302
0.117159
0.114945
0.112662
0.11031
0.107891
0.105407
0.102858
0.100248
0.097576
0.0948452
0.0920568
0.0892126
0.0863142
0.0833635
0.0803621
0.077312
0.074215
0.0710729
0.0678877
0.0646613
0.0613956
0.0580927
0.0547546
0.0513832
0.0479807
0.044549
0.0410903
0.0376067
0.0341003
0.0305732
0.0270276
0.0234655
0.0198893
0.016301
0.0127028
0.00909692
0.00548554
0.00187085
-0.00174495
-0.00535969
-0.00897116
-0.0125772
-0.0161755
-0.019764
-0.0233405
-0.0269028
-0.0304487
-0.0339761
-0.0374829
-0.0409669
-0.044426
-0.0478582
-0.0512612
-0.0546331
-0.0579718
-0.0612753
-0.0645415
-0.0677686
-0.0709545
-0.0740973
-0.0771951
-0.080246
-0.0832481
-0.0861997
-0.0890989
-0.0919441
-0.0947333
-0.0974651
-0.100138
-0.102749
-0.105299
-0.107784
-0.110204
-0.112557
-0.114842
-0.117056
-0.1192
-0.121272
-0.123269
-0.125192
-0.127039
-0.128809
-0.1305
-0.132113
-0.133645
-0.135095
-0.136464
-0.13775
-0.138952
-0.14007
-0.141103
-0.14205
-0.142911
-0.143685
-0.144372
-0.144971
-0.145482
-0.145905
-0.146239
-0.146485
-0.146641
-0.146708
-0.146687
-0.146576
-0.146377
-0.146088
-0.145711
-0.145246
-0.144692
-0.14405
-0.143321
-0.142505
-0.141602
-0.140614
-0.13954
-0.138381
-0.137138
-0.135812
-0.134403
-0.132913
-0.131342
-0.129691
-0.127962
-0.126155
-0.124271
-0.122312
-0.120278
-0.118172
-0.115993
-0.113745
-0.111427
-0.109041
-0.10659
-0.104073
-0.101493
-0.0988521
-0.0961508
-0.0933911
-0.0905746
-0.0877032
-0.0847785
-0.0818023
-0.0787764
-0.0757027
-0.072583
-0.0694192
-0.0662133
-0.0629671
-0.0596827
-0.0563621
-0.0530072
-0.0496201
-0.0462029
-0.0427576
-0.0392864
-0.0357912
-0.0322744
-0.0287379
-0.025184
-0.0216148
-0.0180324
-0.0144391
-0.010837
-0.00722836
-0.00361528
0
0
0.00421287
0.0084232
0.0126284
0.016826
0.0210133
0.025188
0.0293473
0.0334888
0.03761
0.0417084
0.0457815
0.0498268
0.0538419
0.0578242
0.0617715
0.0656813
0.0695513
0.073379
0.0771622
0.0808986
0.0845859
0.0882218
0.0918042
0.0953308
0.0987997
0.102208
0.105555
0.108838
0.112055
0.115203
0.118282
0.121289
0.124222
0.12708
0.129861
0.132563
0.135185
0.137724
0.14018
0.142551
0.144835
0.147031
0.149138
0.151155
0.15308
0.154912
0.156649
0.158292
0.159839
0.161289
0.16264
0.163893
0.165047
0.1661
0.167053
0.167904
0.168653
0.1693
0.169844
0.170285
0.170623
0.170857
0.170987
0.171014
0.170937
0.170757
0.170472
0.170085
0.169594
0.169
0.168303
0.167505
0.166605
0.165603
0.164501
0.163299
0.161998
0.160599
0.159102
0.157509
0.15582
0.154037
0.15216
0.15019
0.14813
0.14598
0.143741
0.141414
0.139002
0.136506
0.133926
0.131266
0.128525
0.125707
0.122813
0.119844
0.116802
0.113689
0.110507
0.107258
0.103944
0.100567
0.0971294
0.0936325
0.0900787
0.0864702
0.0828093
0.0790981
0.0753389
0.071534
0.0676857
0.0637963
0.0598682
0.0559038
0.0519055
0.0478757
0.0438168
0.0397314
0.0356218
0.0314907
0.0273404
0.0231736
0.0189928
0.0148004
0.0105991
0.00639137
0.00217978
-0.00203311
-0.00624477
-0.0104526
-0.0146541
-0.0188466
-0.0230277
-0.0271948
-0.0313453
-0.0354768
-0.0395867
-0.0436726
-0.0477319
-0.0517622
-0.0557611
-0.0597261
-0.0636548
-0.0675448
-0.0713938
-0.0751994
-0.0789594
-0.0826714
-0.0863331
-0.0899425
-0.0934972
-0.0969951
-0.100434
-0.103812
-0.107127
-0.110377
-0.11356
-0.116674
-0.119717
-0.122687
-0.125583
-0.128402
-0.131144
-0.133806
-0.136386
-0.138884
-0.141297
-0.143625
-0.145866
-0.148017
-0.150079
-0.15205
-0.153929
-0.155714
-0.157404
-0.158999
-0.160497
-0.161898
-0.1632
-0.164404
-0.165507
-0.16651
-0.167412
-0.168213
-0.168911
-0.169506
-0.169999
-0.170388
-0.170674
-0.170856
-0.170935
-0.170909
-0.170781
-0.170548
-0.170212
-0.169773
-0.16923
-0.168585
-0.167838
-0.166988
-0.166037
-0.164985
-0.163834
-0.162582
-0.161232
-0.159784
-0.158239
-0.156598
-0.154861
-0.153031
-0.151108
-0.149093
-0.146987
-0.144792
-0.142509
-0.14014
-0.137686
-0.135148
-0.132528
-0.129827
-0.127047
-0.124191
-0.121259
-0.118253
-0.115176
-0.112028
-0.108813
-0.105531
-0.102186
-0.0987781
-0.0953105
-0.0917849
-0.0882036
-0.0845688
-0.0808825
-0.0771472
-0.073365
-0.0695382
-0.0656692
-0.0617604
-0.057814
-0.0538325
-0.0498183
-0.0457738
-0.0417015
-0.0376039
-0.0334835
-0.0293427
-0.0251841
-0.0210102
-0.0168235
-0.0126266
-0.00842199
-0.00421228
0
0
0.0048074
0.00961189
0.0144106
0.0192005
0.0239788
0.0287425
0.0334888
0.0382148
0.0429176
0.0475944
0.0522422
0.0568584
0.0614401
0.0659845
0.0704888
0.0749504
0.0793665
0.0837344
0.0880515
0.0923151
0.0965227
0.100672
0.10476
0.108784
0.112742
0.116632
0.120451
0.124197
0.127868
0.131461
0.134974
0.138406
0.141753
0.145014
0.148187
0.151271
0.154262
0.15716
0.159962
0.162668
0.165274
0.16778
0.170185
0.172486
0.174683
0.176773
0.178756
0.180631
0.182396
0.18405
0.185592
0.187022
0.188339
0.189541
0.190628
0.191599
0.192454
0.193192
0.193813
0.194316
0.194702
0.194969
0.195117
0.195148
0.19506
0.194854
0.19453
0.194087
0.193527
0.192849
0.192055
0.191143
0.190116
0.188973
0.187716
0.186344
0.18486
0.183263
0.181555
0.179737
0.17781
0.175775
0.173633
0.171386
0.169034
0.16658
0.164025
0.161371
0.158618
0.15577
0.152826
0.14979
0.146663
0.143447
0.140144
0.136756
0.133285
0.129733
0.126102
0.122395
0.118613
0.11476
0.110836
0.106846
0.102791
0.098673
0.0944954
0.0902605
0.0859708
0.081629
0.0772376
0.0727993
0.0683169
0.063793
0.0592304
0.0546319
0.0500003
0.0453383
0.0406488
0.0359347
0.0311988
0.0264439
0.0216731
0.0168891
0.0120948
0.00729331
0.00248737
-0.00232005
-0.00712605
-0.0119277
-0.0167221
-0.0215063
-0.0262774
-0.0310326
-0.0357688
-0.0404833
-0.0451733
-0.0498357
-0.0544679
-0.059067
-0.0636302
-0.0681547
-0.0726378
-0.0770768
-0.081469
-0.0858117
-0.0901023
-0.0943381
-0.0985166
-0.102635
-0.106692
-0.110683
-0.114607
-0.118462
-0.122245
-0.125953
-0.129585
-0.133139
-0.136611
-0.140001
-0.143305
-0.146522
-0.149651
-0.152688
-0.155633
-0.158484
-0.161238
-0.163894
-0.16645
-0.168906
-0.171259
-0.173508
-0.175651
-0.177688
-0.179617
-0.181437
-0.183147
-0.184745
-0.186231
-0.187605
-0.188864
-0.190009
-0.191038
-0.191951
-0.192748
-0.193427
-0.193989
-0.194433
-0.19476
-0.194968
-0.195057
-0.195028
-0.194881
-0.194616
-0.194233
-0.193731
-0.193113
-0.192376
-0.191523
-0.190554
-0.189469
-0.188268
-0.186954
-0.185526
-0.183985
-0.182333
-0.18057
-0.178697
-0.176715
-0.174627
-0.172432
-0.170133
-0.16773
-0.165225
-0.162621
-0.159917
-0.157116
-0.15422
-0.15123
-0.148148
-0.144977
-0.141717
-0.138371
-0.134941
-0.13143
-0.127838
-0.124169
-0.120424
-0.116606
-0.112718
-0.108761
-0.104738
-0.100651
-0.0965032
-0.0922968
-0.0880343
-0.0837184
-0.0793516
-0.0749366
-0.0704761
-0.0659728
-0.0614294
-0.0568487
-0.0522335
-0.0475865
-0.0429106
-0.0382087
-0.0334836
-0.0287381
-0.0239752
-0.0191976
-0.0144085
-0.00961051
-0.00480672
0
0
0.00539901
0.0107948
0.016184
0.0215633
0.0269297
0.0322796
0.03761
0.0429176
0.0481992
0.0534514
0.0586713
0.0638556
0.0690011
0.0741047
0.0791634
0.084174
0.0891335
0.0940389
0.0988873
0.103676
0.108401
0.113061
0.117652
0.122171
0.126617
0.130985
0.135274
0.139481
0.143604
0.147639
0.151585
0.155438
0.159197
0.16286
0.166424
0.169886
0.173246
0.1765
0.179648
0.182686
0.185613
0.188428
0.191128
0.193713
0.196179
0.198527
0.200754
0.202859
0.204842
0.206699
0.208432
0.210038
0.211516
0.212866
0.214087
0.215178
0.216138
0.216967
0.217664
0.218229
0.218662
0.218962
0.219129
0.219163
0.219065
0.218833
0.218469
0.217972
0.217343
0.216582
0.215689
0.214666
0.213512
0.212229
0.210817
0.209276
0.207609
0.205816
0.203898
0.201856
0.199691
0.197406
0.195
0.192477
0.189836
0.18708
0.184211
0.181229
0.178138
0.174939
0.171633
0.168224
0.164712
0.1611
0.157391
0.153585
0.149687
0.145698
0.14162
0.137457
0.13321
0.128882
0.124476
0.119995
0.11544
0.110816
0.106124
0.101368
0.0965506
0.0916744
0.0867426
0.0817582
0.0767241
0.0716435
0.0665195
0.061355
0.0561534
0.0509177
0.0456511
0.0403569
0.0350381
0.0296982
0.0243402
0.0189675
0.0135832
0.00819082
0.00279345
-0.00260558
-0.00800302
-0.0133956
-0.01878
-0.0241529
-0.0295112
-0.0348515
-0.0401706
-0.0454653
-0.0507324
-0.0559686
-0.0611709
-0.0663359
-0.0714607
-0.076542
-0.0815768
-0.0865621
-0.0914948
-0.0963719
-0.10119
-0.105948
-0.11064
-0.115266
-0.119821
-0.124304
-0.128711
-0.13304
-0.137289
-0.141454
-0.145533
-0.149523
-0.153423
-0.157229
-0.160941
-0.164554
-0.168067
-0.171479
-0.174786
-0.177987
-0.18108
-0.184063
-0.186934
-0.189692
-0.192334
-0.19486
-0.197267
-0.199555
-0.201721
-0.203765
-0.205685
-0.20748
-0.20915
-0.210692
-0.212106
-0.213391
-0.214547
-0.215573
-0.216468
-0.217231
-0.217862
-0.218361
-0.218727
-0.218961
-0.219061
-0.219029
-0.218864
-0.218566
-0.218136
-0.217573
-0.216877
-0.216051
-0.215092
-0.214004
-0.212785
-0.211437
-0.209961
-0.208357
-0.206627
-0.204771
-0.202791
-0.200688
-0.198463
-0.196117
-0.193652
-0.19107
-0.188371
-0.185558
-0.182633
-0.179597
-0.176451
-0.173199
-0.169841
-0.16638
-0.162818
-0.159157
-0.155399
-0.151548
-0.147604
-0.14357
-0.139449
-0.135244
-0.130956
-0.126589
-0.122145
-0.117627
-0.113037
-0.108379
-0.103655
-0.098868
-0.0940209
-0.0891168
-0.0841585
-0.079149
-0.0740915
-0.068989
-0.0638446
-0.0586614
-0.0534426
-0.0481913
-0.0429108
-0.0376042
-0.0322747
-0.0269256
-0.0215601
-0.0161816
-0.0107932
-0.00539825
0
0
0.00598734
0.0119711
0.0179475
0.0239131
0.0298642
0.0357972
0.0417084
0.0475944
0.0534515
0.0592761
0.0650648
0.070814
0.0765202
0.0821799
0.0877898
0.0933465
0.0988464
0.104286
0.109663
0.114973
0.120214
0.125381
0.130472
0.135484
0.140414
0.145259
0.150015
0.154681
0.159252
0.163727
0.168103
0.172376
0.176545
0.180607
0.184559
0.188399
0.192125
0.195734
0.199224
0.202593
0.20584
0.208961
0.211956
0.214822
0.217557
0.220161
0.222631
0.224965
0.227163
0.229224
0.231145
0.232926
0.234565
0.236062
0.237416
0.238626
0.23969
0.24061
0.241383
0.24201
0.24249
0.242822
0.243008
0.243046
0.242936
0.24268
0.242276
0.241725
0.241027
0.240183
0.239193
0.238058
0.236779
0.235355
0.233789
0.232081
0.230232
0.228244
0.226117
0.223852
0.221452
0.218917
0.21625
0.213451
0.210523
0.207466
0.204284
0.200978
0.19755
0.194002
0.190336
0.186555
0.182661
0.178655
0.174542
0.170322
0.165999
0.161575
0.157053
0.152436
0.147726
0.142927
0.138041
0.133071
0.12802
0.122892
0.117689
0.112414
0.107072
0.101664
0.096195
0.0906674
0.0850848
0.0794505
0.0737681
0.0680409
0.0622725
0.0564662
0.0506257
0.0447546
0.0388562
0.0329344
0.0269925
0.0210343
0.0150634
0.00908336
0.00309784
-0.00288953
-0.00887514
-0.0148553
-0.0208265
-0.0267849
-0.0327271
-0.0386493
-0.0445481
-0.0504198
-0.0562608
-0.0620676
-0.0678367
-0.0735646
-0.0792478
-0.0848829
-0.0904664
-0.0959949
-0.101465
-0.106874
-0.112217
-0.117493
-0.122697
-0.127826
-0.132878
-0.13785
-0.142737
-0.147538
-0.152249
-0.156868
-0.161391
-0.165817
-0.170142
-0.174363
-0.178478
-0.182486
-0.186382
-0.190165
-0.193832
-0.197382
-0.200812
-0.20412
-0.207304
-0.210363
-0.213293
-0.216094
-0.218764
-0.221301
-0.223703
-0.22597
-0.228099
-0.23009
-0.231941
-0.233651
-0.235219
-0.236645
-0.237927
-0.239064
-0.240056
-0.240903
-0.241603
-0.242156
-0.242562
-0.242821
-0.242933
-0.242897
-0.242714
-0.242384
-0.241906
-0.241282
-0.240511
-0.239594
-0.238531
-0.237324
-0.235972
-0.234478
-0.232841
-0.231062
-0.229143
-0.227085
-0.224889
-0.222557
-0.220089
-0.217488
-0.214754
-0.211891
-0.208898
-0.205779
-0.202535
-0.199167
-0.195679
-0.192072
-0.188348
-0.18451
-0.18056
-0.1765
-0.172333
-0.168062
-0.163688
-0.159215
-0.154645
-0.149981
-0.145227
-0.140384
-0.135455
-0.130445
-0.125355
-0.120189
-0.11495
-0.109642
-0.104266
-0.0988279
-0.0933293
-0.087774
-0.0821653
-0.0765068
-0.0708018
-0.0650538
-0.0592663
-0.0534428
-0.0475868
-0.0417019
-0.0357917
-0.0298597
-0.0239096
-0.0179449
-0.0119693
-0.0059865
0
0
0.00657204
0.0131401
0.0197002
0.0262484
0.0327806
0.039293
0.0457815
0.0522423
0.0586713
0.0650648
0.0714187
0.0777294
0.0839928
0.0902053
0.0963631
0.102462
0.108499
0.114471
0.120372
0.126201
0.131953
0.137625
0.143214
0.148715
0.154127
0.159444
0.164665
0.169786
0.174804
0.179716
0.184519
0.18921
0.193786
0.198244
0.202582
0.206797
0.210887
0.214848
0.218679
0.222378
0.225941
0.229367
0.232654
0.2358
0.238803
0.241661
0.244372
0.246934
0.249347
0.251609
0.253718
0.255672
0.257472
0.259115
0.260601
0.261929
0.263098
0.264107
0.264956
0.265644
0.26617
0.266536
0.266739
0.26678
0.266661
0.266379
0.265936
0.265331
0.264565
0.263638
0.262552
0.261306
0.259902
0.258339
0.25662
0.254746
0.252716
0.250533
0.248198
0.245713
0.243078
0.240296
0.237368
0.234296
0.231081
0.227727
0.224234
0.220605
0.216842
0.212948
0.208924
0.204773
0.200499
0.196102
0.191587
0.186955
0.18221
0.177354
0.17239
0.167322
0.162152
0.156884
0.151521
0.146066
0.140522
0.134893
0.129182
0.123392
0.117528
0.111592
0.105589
0.0995216
0.0933938
0.0872094
0.080972
0.0746855
0.0683537
0.0619805
0.0555696
0.0491251
0.0426508
0.0361506
0.0296285
0.0230884
0.0165344
0.00997038
0.00340034
-0.00317173
-0.00974188
-0.0163061
-0.0228603
-0.0294007
-0.0359231
-0.0424237
-0.0488985
-0.0553436
-0.061755
-0.0681289
-0.0744614
-0.0807487
-0.0869869
-0.0931722
-0.099301
-0.105369
-0.111374
-0.117311
-0.123176
-0.128967
-0.134679
-0.14031
-0.145855
-0.151312
-0.156676
-0.161946
-0.167117
-0.172187
-0.177152
-0.18201
-0.186757
-0.191391
-0.195908
-0.200306
-0.204583
-0.208736
-0.212761
-0.216658
-0.220423
-0.224054
-0.227549
-0.230906
-0.234123
-0.237197
-0.240127
-0.242912
-0.245549
-0.248037
-0.250374
-0.252559
-0.254591
-0.256469
-0.25819
-0.259755
-0.261162
-0.26241
-0.263499
-0.264428
-0.265197
-0.265804
-0.26625
-0.266534
-0.266657
-0.266617
-0.266416
-0.266054
-0.26553
-0.264844
-0.263998
-0.262992
-0.261825
-0.2605
-0.259017
-0.257376
-0.255579
-0.253627
-0.25152
-0.249261
-0.246851
-0.244291
-0.241582
-0.238727
-0.235727
-0.232583
-0.229298
-0.225875
-0.222313
-0.218617
-0.214788
-0.210829
-0.206742
-0.202529
-0.198193
-0.193737
-0.189163
-0.184474
-0.179673
-0.174763
-0.169747
-0.164628
-0.159409
-0.154093
-0.148683
-0.143184
-0.137597
-0.131927
-0.126176
-0.120349
-0.114449
-0.108479
-0.102443
-0.0963456
-0.0901893
-0.0839782
-0.0777161
-0.0714067
-0.065054
-0.0586618
-0.0522339
-0.0457744
-0.039287
-0.0327757
-0.0262445
-0.0196973
-0.0131382
-0.00657112
0
0
0.00715276
0.0143012
0.021441
0.0285677
0.0356772
0.042765
0.0498268
0.0568585
0.0638556
0.070814
0.0777294
0.0845976
0.0914145
0.098176
0.104878
0.111516
0.118087
0.124585
0.131009
0.137352
0.143613
0.149786
0.155868
0.161856
0.167745
0.173533
0.179215
0.184789
0.19025
0.195596
0.200823
0.205929
0.210909
0.215761
0.220483
0.22507
0.229521
0.233833
0.238002
0.242027
0.245906
0.249635
0.253212
0.256636
0.259904
0.263014
0.265965
0.268754
0.27138
0.273841
0.276136
0.278264
0.280222
0.282011
0.283628
0.285073
0.286345
0.287444
0.288367
0.289116
0.28969
0.290087
0.290308
0.290353
0.290223
0.289916
0.289434
0.288776
0.287942
0.286934
0.285751
0.284395
0.282867
0.281166
0.279296
0.277255
0.275046
0.272671
0.270129
0.267424
0.264557
0.261529
0.258342
0.254998
0.2515
0.247849
0.244047
0.240098
0.236002
0.231764
0.227385
0.222867
0.218215
0.21343
0.208515
0.203474
0.19831
0.193025
0.187623
0.182107
0.17648
0.170747
0.16491
0.158972
0.152939
0.146812
0.140596
0.134295
0.127913
0.121453
0.114919
0.108315
0.101646
0.0949153
0.0881268
0.0812848
0.0743935
0.0674571
0.0604798
0.0534658
0.0464194