# vtk DataFile Version 3.0
Scalar Field Data
ASCII
DATASET STRUCTURED_POINTS
DIMENSIONS 256 256 1
ORIGIN 0 0 0
SPACING 0.00392157 0.00392157 1
POINT_DATA 65536
SCALARS scalars double
LOOKUP_TABLE default
0
0
0
0
0
0
0
0
0
0
0
0
0
0
0
0
0
0
0
0
0
0
0
0
0
0
0
0
0
0
0
0
0
0
0
0
0
0
0
0
0
0
0
0
0
0
0
0
0
0
0
0
0
0
0
0
0
0
0
0
0
0
0
0
0
0
0
0
0
0
0
0
0
0
0
0
0
0
0
0
0
0
0
0
0
0
0
0
0
0
0
0
0
0
0
0
0
0
0
0
0
0
0
0
0
0
0
0
0
0
0
0
0
0
0
0
0
0
0
0
0
0
0
0
0
0
0
0
0
0
0
0
0
0
0
0
0
0
0
0
0
0
0
0
0
0
0
0
0
0
0
0
0
0
0
0
0
0
0
0
0
0
0
0
0
0
0
0
0
0
0
0
0
0
0
0
0
0
0
0
0
0
0
0
0
0
0
0
0
0
0
0
0
0
0
0
0
0
0
0
0
0
0
0
0
0
0
0
0
0
0
0
0
0
0
0
0
0
0
0
0
0
0
0
0
0
0
0
0
0
0
0
0
0
0
0
0
0
0
0
0
0
0
0
0
0
0
0
0
0
0
0
0
0
0
0
0
0.000605009
0.00120965
0.00181356
0.00241637
0.00301772
0.00361723
0.00421455
0.00480931
0.00540116
0.00598973
0.00657466
0.0071556
0.0077322
0.00830411
0.00887097
0.00943246
0.00998821
0.0105379
0.0110812
0.0116178
0.0121473
0.0126695
0.0131839
0.0136904
0.0141885
0.0146781
0.0151587
0.0156301
0.0160921
0.0165442
0.0169864
0.0174182
0.0178394
0.0182498
0.0186492
0.0190372
0.0194137
0.0197784
0.020131
0.0204715
0.0207995
0.0211149
0.0214175
0.0217071
0.0219835
0.0222466
0.0224961
0.0227321
0.0229542
0.0231623
0.0233565
0.0235364
0.0237021
0.0238534
0.0239902
0.0241125
0.0242202
0.0243131
0.0243913
0.0244546
0.0245032
0.0245368
0.0245556
0.0245594
0.0245484
0.0245224
0.0244816
0.0244259
0.0243553
0.02427
0.02417
0.0240553
0.0239259
0.0237821
0.0236238
0.0234512
0.0232644
0.0230634
0.0228484
0.0226196
0.022377
0.0221209
0.0218513
0.0215684
0.0212725
0.0209636
0.0206421
0.020308
0.0199615
0.019603
0.0192326
0.0188504
0.0184569
0.0180521
0.0176364
0.01721
0.0167731
0.0163261
0.0158691
0.0154025
0.0149266
0.0144416
0.0139478
0.0134456
0.0129353
0.0124171
0.0118913
0.0113584
0.0108185
0.0102721
0.00971945
0.0091609
0.0085968
0.00802747
0.00745328
0.00687456
0.00629168
0.00570498
0.00511481
0.00452155
0.00392554
0.00332715
0.00272675
0.00212469
0.00152135
0.000917089
0.000312272
-0.00029273
-0.000897552
-0.00150183
-0.00210518
-0.00270726
-0.00330769
-0.00390611
-0.00450215
-0.00509546
-0.00568567
-0.00627243
-0.00685537
-0.00743415
-0.00800841
-0.0085778
-0.00914199
-0.00970062
-0.0102534
-0.0107999
-0.0113398
-0.0118729
-0.0123987
-0.012917
-0.0134275
-0.0139298
-0.0144237
-0.0149088
-0.0153849
-0.0158516
-0.0163087
-0.0167559
-0.0171929
-0.0176195
-0.0180354
-0.0184403
-0.018834
-0.0192163
-0.0195869
-0.0199456
-0.0202923
-0.0206265
-0.0209483
-0.0212573
-0.0215535
-0.0218365
-0.0221063
-0.0223626
-0.0226054
-0.0228345
-0.0230496
-0.0232508
-0.0234379
-0.0236107
-0.0237692
-0.0239132
-0.0240428
-0.0241577
-0.024258
-0.0243435
-0.0244143
-0.0244702
-0.0245112
-0.0245374
-0.0245487
-0.0245451
-0.0245265
-0.0244931
-0.0244448
-0.0243816
-0.0243037
-0.024211
-0.0241036
-0.0239815
-0.0238449
-0.0236938
-0.0235283
-0.0233485
-0.0231546
-0.0229466
-0.0227247
-0.022489
-0.0222397
-0.0219768
-0.0217006
-0.0214112
-0.0211088
-0.0207936
-0.0204658
-0.0201255
-0.019773
-0.0194086
-0.0190323
-0.0186444
-0.0182453
-0.0178351
-0.017414
-0.0169823
-0.0165404
-0.0160884
-0.0156266
-0.0151554
-0.0146749
-0.0141855
-0.0136875
-0.0131812
-0.0126669
-0.0121449
-0.0116155
-0.0110791
-0.0105359
-0.00998636
-0.00943074
-0.00886938
-0.00830264
-0.00773086
-0.00715438
-0.00657355
-0.00598874
-0.00540028
-0.00480855
-0.00421389
-0.00361667
-0.00301726
-0.00241601
-0.00181329
-0.00120948
-0.000604923
0
0
0.00120965
0.00241857
0.00362603
0.00483128
0.00603361
0.00723228
0.00842655
0.00961572
0.0107991
0.0119758
0.0131453
0.0143069
0.0154597
0.0166032
0.0177366
0.0188592
0.0199704
0.0210694
0.0221557
0.0232285
0.0242873
0.0253313
0.0263599
0.0273725
0.0283685
0.0293473
0.0303082
0.0312508
0.0321744
0.0330785
0.0339625
0.0348258
0.0356681
0.0364887
0.0372871
0.0380629
0.0388156
0.0395448
0.0402499
0.0409306
0.0415865
0.0422171
0.0428221
0.0434011
0.0439537
0.0444797
0.0449787
0.0454504
0.0458944
0.0463107
0.0466988
0.0470586
0.0473899
0.0476924
0.047966
0.0482105
0.0484257
0.0486115
0.0487678
0.0488945
0.0489915
0.0490588
0.0490963
0.049104
0.0490819
0.04903
0.0489483
0.048837
0.0486959
0.0485254
0.0483253
0.048096
0.0478374
0.0475498
0.0472334
0.0468882
0.0465146
0.0461128
0.045683
0.0452255
0.0447405
0.0442283
0.0436893
0.0431238
0.0425321
0.0419146
0.0412717
0.0406037
0.039911
0.0391941
0.0384535
0.0376895
0.0369026
0.0360933
0.0352621
0.0344096
0.0335361
0.0326423
0.0317286
0.0307957
0.0298441
0.0288745
0.0278872
0.0268831
0.0258627
0.0248266
0.0237755
0.0227099
0.0216305
0.020538
0.019433
0.0183163
0.0171884
0.0160501
0.014902
0.013745
0.0125795
0.0114065
0.0102265
0.00904036
0.0078487
0.00665229
0.00545185
0.0042481
0.00304178
0.00183362
0.000624352
-0.000585288
-0.00179457
-0.00300275
-0.0042091
-0.00541289
-0.00661339
-0.00780986
-0.00900159
-0.0101878
-0.0113679
-0.0125411
-0.0137066
-0.0148638
-0.016012
-0.0171504
-0.0182784
-0.0193954
-0.0205005
-0.0215932
-0.0226728
-0.0237386
-0.0247899
-0.0258263
-0.0268469
-0.0278512
-0.0288386
-0.0298085
-0.0307604
-0.0316936
-0.0326075
-0.0335016
-0.0343754
-0.0352283
-0.0360598
-0.0368694
-0.0376566
-0.038421
-0.039162
-0.0398792
-0.0405722
-0.0412406
-0.0418839
-0.0425018
-0.0430939
-0.0436598
-0.0441992
-0.0447118
-0.0451972
-0.0456551
-0.0460853
-0.0464876
-0.0468616
-0.0472071
-0.047524
-0.047812
-0.048071
-0.0483008
-0.0485013
-0.0486723
-0.0488137
-0.0489256
-0.0490077
-0.04906
-0.0490825
-0.0490753
-0.0490382
-0.0489714
-0.0488748
-0.0487485
-0.0485927
-0.0484073
-0.0481925
-0.0479485
-0.0476753
-0.0473732
-0.0470424
-0.0466829
-0.0462951
-0.0458793
-0.0454357
-0.0449644
-0.0444659
-0.0439403
-0.0433881
-0.0428095
-0.0422049
-0.0415747
-0.0409192
-0.0402389
-0.0395341
-0.0388054
-0.0380531
-0.0372776
-0.0364795
-0.0356593
-0.0348174
-0.0339544
-0.0330708
-0.032167
-0.0312438
-0.0303015
-0.0293409
-0.0283624
-0.0273668
-0.0263544
-0.0253261
-0.0242824
-0.023224
-0.0221515
-0.0210655
-0.0199667
-0.0188558
-0.0177334
-0.0166003
-0.015457
-0.0143044
-0.0131431
-0.0119739
-0.0107973
-0.00961418
-0.00842523
-0.00723116
-0.00603269
-0.00483056
-0.00362549
-0.00241822
-0.00120948
0
0
0.00181356
0.00362603
0.0054363
0.00724327
0.00904585
0.0108429
0.0126335
0.0144163
0.0161904
0.0179547
0.0197081
0.0214495
0.0231779
0.0248922
0.0265914
0.0282745
0.0299405
0.0315882
0.0332168
0.0348252
0.0364125
0.0379777
0.0395198
0.041038
0.0425312
0.0439987
0.0454394
0.0468525
0.0482372
0.0495926
0.050918
0.0522124
0.0534751
0.0547054
0.0559024
0.0570655
0.058194
0.0592872
0.0603444
0.0613649
0.0623482
0.0632937
0.0642007
0.0650688
0.0658973
0.0666859
0.067434
0.0681411
0.0688069
0.0694309
0.0700128
0.0705522
0.0710489
0.0715025
0.0719127
0.0722792
0.0726018
0.0728804
0.0731147
0.0733047
0.0734501
0.073551
0.0736073
0.0736188
0.0735857
0.0735079
0.0733854
0.0732185
0.073007
0.0727513
0.0724514
0.0721075
0.0717199
0.0712887
0.0708143
0.0702968
0.0697367
0.0691343
0.0684899
0.0678039
0.0670768
0.066309
0.0655009
0.064653
0.063766
0.0628402
0.0618762
0.0608747
0.0598363
0.0587615
0.0576511
0.0565057
0.0553259
0.0541126
0.0528665
0.0515883
0.0502787
0.0489387
0.0475689
0.0461703
0.0447436
0.0432898
0.0418097
0.0403043
0.0387745
0.0372211
0.0356452
0.0340476
0.0324294
0.0307914
0.0291348
0.0274605
0.0257696
0.024063
0.0223418
0.020607
0.0188598
0.0171011
0.015332
0.0135537
0.0117671
0.0099734
0.00817364
0.00636893
0.00456036
0.00274903
0.00093605
-0.000877494
-0.00269049
-0.00450185
-0.00631047
-0.00811524
-0.00991508
-0.0117089
-0.0134956
-0.0152741
-0.0170433
-0.0188021
-0.0205495
-0.0222845
-0.0240058
-0.0257126
-0.0274038
-0.0290784
-0.0307352
-0.0323735
-0.033992
-0.0355899
-0.0371662
-0.0387199
-0.04025
-0.0417558
-0.0432361
-0.0446903
-0.0461173
-0.0475164
-0.0488866
-0.0502271
-0.0515371
-0.0528158
-0.0540624
-0.0552762
-0.0564565
-0.0576024
-0.0587133
-0.0597886
-0.0608276
-0.0618297
-0.0627942
-0.0637206
-0.0646082
-0.0654567
-0.0662653
-0.0670338
-0.0677615
-0.0684481
-0.0690931
-0.0696962
-0.0702569
-0.0707749
-0.07125
-0.0716818
-0.0720701
-0.0724147
-0.0727152
-0.0729716
-0.0731837
-0.0733513
-0.0734744
-0.0735528
-0.0735866
-0.0735758
-0.0735202
-0.07342
-0.0732752
-0.0730859
-0.0728522
-0.0725743
-0.0722523
-0.0718864
-0.0714769
-0.071024
-0.0705279
-0.0699891
-0.0694077
-0.0687843
-0.0681191
-0.0674126
-0.0666651
-0.0658772
-0.0650493
-0.0641818
-0.0632754
-0.0623305
-0.0613478
-0.0603279
-0.0592713
-0.0581787
-0.0570508
-0.0558882
-0.0546917
-0.053462
-0.0521998
-0.0509059
-0.0495811
-0.0482262
-0.046842
-0.0454294
-0.0439891
-0.0425222
-0.0410294
-0.0395117
-0.03797
-0.0364053
-0.0348184
-0.0332104
-0.0315823
-0.0299349
-0.0282694
-0.0265867
-0.0248878
-0.0231739
-0.0214458
-0.0197047
-0.0179517
-0.0161878
-0.014414
-0.0126315
-0.0108413
-0.00904447
-0.00724218
-0.00543549
-0.0036255
-0.0018133
0
0
0.00241637
0.00483128
0.00724327
0.00965086
0.0120526
0.014447
0.0168327
0.0192081
0.0215719
0.0239226
0.0262588
0.0285791
0.030882
0.0331661
0.0354302
0.0376727
0.0398924
0.0420878
0.0442577
0.0464008
0.0485157
0.0506011
0.0526559
0.0546786
0.0566682
0.0586234
0.060543
0.0624258
0.0642708
0.0660768
0.0678426
0.0695673
0.0712497
0.0728889
0.0744838
0.0760336
0.0775372
0.0789937
0.0804022
0.081762
0.0830721
0.0843319
0.0855404
0.086697
0.0878009
0.0888516
0.0898484
0.0907906
0.0916777
0.0925091
0.0932844
0.0940031
0.0946649
0.0952692
0.0958157
0.0963041
0.096734
0.0971051
0.0974174
0.0976705
0.0978643
0.0979987
0.0980736
0.098089
0.0980448
0.0979411
0.097778
0.0975556
0.0972739
0.0969331
0.0965336
0.0960754
0.0955589
0.0949844
0.0943523
0.0936628
0.0929166
0.0921139
0.0912553
0.0903413
0.0893725
0.0883494
0.0872728
0.0861431
0.0849611
0.0837276
0.0824433
0.0811089
0.0797253
0.0782933
0.0768137
0.0752876
0.0737157
0.0720992
0.0704388
0.0687357
0.0669909
0.0652054
0.0633803
0.0615168
0.059616
0.0576789
0.0557069
0.0537011
0.0516628
0.0495931
0.0474933
0.0453647
0.0432085
0.0410262
0.0388189
0.0365881
0.0343351
0.0320613
0.029768
0.0274566
0.0251286
0.0227853
0.0204283
0.0180588
0.0156784
0.0132884
0.0108905
0.00848589
0.00607617
0.00366278
0.00124718
-0.00116917
-0.0035848
-0.00599823
-0.00840801
-0.0108127
-0.0132108
-0.0156008
-0.0179814
-0.020351
-0.0227083
-0.0250517
-0.02738
-0.0296916
-0.0319852
-0.0342593
-0.0365126
-0.0387438
-0.0409514
-0.0431341
-0.0452906
-0.0474196
-0.0495198
-0.05159
-0.0536288
-0.055635
-0.0576074
-0.0595449
-0.0614463
-0.0633104
-0.065136
-0.0669221
-0.0686675
-0.0703713
-0.0720323
-0.0736495
-0.075222
-0.0767489
-0.0782291
-0.0796618
-0.0810462
-0.0823813
-0.0836664
-0.0849007
-0.0860834
-0.0872138
-0.0882913
-0.0893152
-0.0902848
-0.0911996
-0.092059
-0.0928625
-0.0936096
-0.0942999
-0.0949329
-0.0955082
-0.0960255
-0.0964846
-0.096885
-0.0972266
-0.0975092
-0.0977325
-0.0978965
-0.0980011
-0.0980461
-0.0980316
-0.0979576
-0.0978241
-0.0976311
-0.0973789
-0.0970676
-0.0966973
-0.0962683
-0.0957808
-0.0952352
-0.0946317
-0.0939707
-0.0932527
-0.0924781
-0.0916475
-0.0907613
-0.0898199
-0.088824
-0.0877742
-0.086671
-0.0855152
-0.0843075
-0.0830486
-0.0817392
-0.0803803
-0.0789725
-0.0775167
-0.0760139
-0.0744649
-0.0728707
-0.0712322
-0.0695505
-0.0678265
-0.0660614
-0.0642561
-0.0624118
-0.0605296
-0.0586107
-0.0566561
-0.0546672
-0.052645
-0.0505909
-0.048506
-0.0463917
-0.0442493
-0.0420799
-0.039885
-0.0376658
-0.0354238
-0.0331603
-0.0308766
-0.0285742
-0.0262544
-0.0239187
-0.0215684
-0.0192051
-0.01683
-0.0144448
-0.0120508
-0.00964941
-0.0072422
-0.00483058
-0.00241603
0
0
0.00301772
0.00603361
0.00904585
0.0120526
0.015052
0.0180424
0.0210217
0.0239883
0.0269404
0.0298761
0.0327937
0.0356913
0.0385673
0.04142
0.0442474
0.047048
0.0498201
0.0525619
0.0552718
0.0579482
0.0605894
0.0631939
0.0657599
0.0682861
0.0707708
0.0732126
0.0756099
0.0779613
0.0802654
0.0825208
0.0847261
0.08688
0.0889811
0.0910282
0.0930201
0.0949555
0.0968333
0.0986522
0.100411
0.10211
0.103746
0.105319
0.106828
0.108273
0.109651
0.110963
0.112208
0.113385
0.114493
0.115531
0.116499
0.117397
0.118223
0.118978
0.119661
0.120271
0.120807
0.121271
0.121661
0.121977
0.122219
0.122387
0.12248
0.1225
0.122445
0.122315
0.122111
0.121833
0.121482
0.121056
0.120557
0.119985
0.11934
0.118622
0.117833
0.116972
0.11604
0.115038
0.113965
0.112824
0.111614
0.110336
0.108992
0.107581
0.106105
0.104564
0.10296
0.101294
0.0995659
0.0977775
0.0959298
0.0940239
0.0920608
0.0900419
0.0879684
0.0858414
0.0836624
0.0814326
0.0791533
0.076826
0.0744521
0.072033
0.0695702
0.0670653
0.0645197
0.0619349
0.0593126
0.0566543
0.0539615
0.0512361
0.0484795
0.0456935
0.0428798
0.0400401
0.0371761
0.0342895
0.0313822
0.0284557
0.0255121
0.0225529
0.0195801
0.0165954
0.0136007
0.0105977
0.0075883
0.0045743
0.00155754
-0.00146014
-0.00447693
-0.00749098
-0.0105005
-0.0135036
-0.0164984
-0.0194833
-0.0224563
-0.0254156
-0.0283595
-0.0312862
-0.0341939
-0.0370807
-0.0399451
-0.0427852
-0.0455993
-0.0483856
-0.0511426
-0.0538686
-0.0565618
-0.0592206
-0.0618435
-0.0644288
-0.066975
-0.0694805
-0.0719438
-0.0743634
-0.076738
-0.079066
-0.0813459
-0.0835765
-0.0857563
-0.0878841
-0.0899584
-0.0919781
-0.093942
-0.0958488
-0.0976974
-0.0994867
-0.101216
-0.102883
-0.104488
-0.106029
-0.107506
-0.108918
-0.110264
-0.111542
-0.112753
-0.113896
-0.114969
-0.115972
-0.116906
-0.117768
-0.118558
-0.119277
-0.119923
-0.120496
-0.120996
-0.121423
-0.121776
-0.122055
-0.122259
-0.12239
-0.122446
-0.122428
-0.122336
-0.122169
-0.121928
-0.121613
-0.121224
-0.120762
-0.120226
-0.119617
-0.118936
-0.118182
-0.117357
-0.11646
-0.115492
-0.114455
-0.113348
-0.112173
-0.110929
-0.109618
-0.10824
-0.106797
-0.105289
-0.103716
-0.102081
-0.100384
-0.0986258
-0.0968077
-0.0949309
-0.0929964
-0.0910055
-0.0889593
-0.086859
-0.084706
-0.0825016
-0.0802471
-0.0779438
-0.0755932
-0.0731967
-0.0707557
-0.0682718
-0.0657464
-0.0631811
-0.0605774
-0.0579369
-0.0552612
-0.052552
-0.0498109
-0.0470395
-0.0442395
-0.0414127
-0.0385607
-0.0356852
-0.0327882
-0.0298712
-0.026936
-0.0239845
-0.0210184
-0.0180396
-0.0150497
-0.0120508
-0.00904451
-0.00603273
-0.00301729
0
0
0.00361723
0.00723228
0.0108429
0.014447
0.0180424
0.0216267
0.025198
0.028754
0.0322925
0.0358114
0.0393086
0.0427819
0.0462293
0.0496486
0.0530378
0.0563948
0.0597176
0.0630041
0.0662524
0.0694605
0.0726264
0.0757483
0.0788241
0.0818521
0.0848305
0.0877573
0.0906309
0.0934495
0.0962113
0.0989148
0.101558
0.10414
0.106659
0.109112
0.1115
0.11382
0.116071
0.118251
0.12036
0.122395
0.124356
0.126242
0.128051
0.129783
0.131435
0.133008
0.1345
0.135911
0.137239
0.138483
0.139644
0.14072
0.14171
0.142615
0.143433
0.144164
0.144808
0.145363
0.145831
0.14621
0.1465
0.146701
0.146813
0.146836
0.14677
0.146615
0.146371
0.146038
0.145616
0.145106
0.144508
0.143822
0.143049
0.142189
0.141242
0.14021
0.139093
0.137892
0.136606
0.135238
0.133788
0.132256
0.130644
0.128953
0.127184
0.125338
0.123415
0.121417
0.119346
0.117202
0.114988
0.112703
0.11035
0.10793
0.105445
0.102895
0.100283
0.0976104
0.0948783
0.0920887
0.0892431
0.0863435
0.0833914
0.0803888
0.0773375
0.0742392
0.0710959
0.0679095
0.0646818
0.0614149
0.0581107
0.0547712
0.0513985
0.0479947
0.0445617
0.0411016
0.0376167
0.0341089
0.0305804
0.0270334
0.02347
0.0198924
0.0163027
0.0127031
0.00909581
0.00548304
0.00186696
-0.00175024
-0.00536635
-0.00897918
-0.0125865
-0.0161863
-0.0197761
-0.0233539
-0.0269176
-0.0304648
-0.0339936
-0.0375017
-0.040987
-0.0444474
-0.0478808
-0.0512851
-0.0546582
-0.0579982
-0.0613029
-0.0645704
-0.0677986
-0.0709857
-0.0741296
-0.0772285
-0.0802806
-0.0832838
-0.0862365
-0.0891368
-0.0919831
-0.0947736
-0.0975065
-0.10018
-0.102793
-0.105344
-0.10783
-0.110251
-0.112605
-0.114891
-0.117106
-0.119251
-0.121324
-0.123322
-0.125246
-0.127094
-0.128864
-0.130556
-0.132169
-0.133702
-0.135153
-0.136523
-0.137809
-0.139012
-0.140131
-0.141164
-0.142111
-0.142973
-0.143747
-0.144434
-0.145034
-0.145545
-0.145968
-0.146302
-0.146548
-0.146704
-0.146772
-0.14675
-0.146639
-0.14644
-0.146151
-0.145773
-0.145307
-0.144753
-0.144111
-0.143381
-0.142564
-0.141661
-0.140671
-0.139596
-0.138437
-0.137193
-0.135867
-0.134458
-0.132967
-0.131395
-0.129744
-0.128014
-0.126206
-0.124321
-0.122361
-0.120327
-0.118219
-0.11604
-0.11379
-0.111472
-0.109085
-0.106632
-0.104115
-0.101534
-0.0988918
-0.0961893
-0.0934285
-0.0906109
-0.0877383
-0.0848124
-0.081835
-0.0788079
-0.075733
-0.072612
-0.0694469
-0.0662397
-0.0629922
-0.0597065
-0.0563846
-0.0530283
-0.0496399
-0.0462213
-0.0427747
-0.039302
-0.0358055
-0.0322872
-0.0287494
-0.025194
-0.0216234
-0.0180396
-0.0144449
-0.0108413
-0.00723123
-0.00361672
0
0
0.00421455
0.00842656
0.0126335
0.0168327
0.0210217
0.025198
0.029359
0.0335022
0.037625
0.041725
0.0457997
0.0498466
0.0538633
0.0578472
0.0617961
0.0657074
0.0695789
0.0734081
0.0771928
0.0809306
0.0846194
0.0882567
0.0918405
0.0953685
0.0988387
0.102249
0.105597
0.108881
0.112099
0.115249
0.118329
0.121337
0.124271
0.12713
0.129912
0.132615
0.135238
0.137778
0.140235
0.142606
0.144892
0.147089
0.149197
0.151214
0.153139
0.154972
0.15671
0.158354
0.159901
0.161351
0.162703
0.163957
0.165111
0.166165
0.167118
0.16797
0.16872
0.169367
0.169912
0.170353
0.170691
0.170926
0.171056
0.171083
0.171006
0.170825
0.170541
0.170153
0.169662
0.169067
0.16837
0.167571
0.16667
0.165668
0.164566
0.163363
0.162062
0.160662
0.159164
0.15757
0.15588
0.154096
0.152218
0.150248
0.148186
0.146035
0.143795
0.141467
0.139054
0.136556
0.133976
0.131314
0.128572
0.125753
0.122857
0.119886
0.116843
0.113729
0.110546
0.107295
0.10398
0.100601
0.0971619
0.0936636
0.0901084
0.0864985
0.0828361
0.0791235
0.0753628
0.0715564
0.0677066
0.0638157
0.0598861
0.0559201
0.0519202
0.0478888
0.0438284
0.0397413
0.0356302
0.0314975
0.0273456
0.0231772
0.0189947
0.0148008
0.0105978
0.00638845
0.00217524
-0.00203927
-0.00625252
-0.0104619
-0.014665
-0.0188591
-0.0230418
-0.0272104
-0.0313625
-0.0354956
-0.039607
-0.0436944
-0.0477553
-0.0517871
-0.0557874
-0.0597539
-0.0636841
-0.0675755
-0.071426
-0.075233
-0.0789943
-0.0827077
-0.0863708
-0.0899814
-0.0935374
-0.0970366
-0.100477
-0.103856
-0.107172
-0.110424
-0.113608
-0.116723
-0.119768
-0.122739
-0.125636
-0.128457
-0.1312
-0.133863
-0.136444
-0.138943
-0.141358
-0.143687
-0.145928
-0.148081
-0.150144
-0.152115
-0.153995
-0.15578
-0.157472
-0.159067
-0.160566
-0.161968
-0.163271
-0.164475
-0.165579
-0.166582
-0.167484
-0.168285
-0.168983
-0.169579
-0.170072
-0.170462
-0.170748
-0.17093
-0.171009
-0.170983
-0.170854
-0.170621
-0.170285
-0.169845
-0.169302
-0.168656
-0.167908
-0.167058
-0.166106
-0.165053
-0.1639
-0.162648
-0.161297
-0.159848
-0.158303
-0.156661
-0.154924
-0.153093
-0.151169
-0.149153
-0.147046
-0.14485
-0.142567
-0.140196
-0.137741
-0.135202
-0.132581
-0.129879
-0.127098
-0.124241
-0.121308
-0.118301
-0.115222
-0.112073
-0.108857
-0.105574
-0.102227
-0.0988176
-0.0953486
-0.0918216
-0.0882389
-0.0846025
-0.0809148
-0.077178
-0.0733943
-0.069566
-0.0656954
-0.061785
-0.057837
-0.0538539
-0.0498381
-0.045792
-0.0417181
-0.0376189
-0.0334968
-0.0293544
-0.0251941
-0.0210185
-0.0168302
-0.0126316
-0.00842533
-0.00421395
0
0
0.00480932
0.00961572
0.0144163
0.0192081
0.0239883
0.028754
0.0335022
0.03823
0.0429347
0.0476133
0.052263
0.056881
0.0614645
0.0660107
0.0705168
0.0749801
0.0793979
0.0837676
0.0880864
0.0923517
0.0965609
0.100712
0.104801
0.108827
0.112787
0.116678
0.120499
0.124246
0.127918
0.131513
0.135027
0.13846
0.141809
0.145071
0.148245
0.15133
0.154322
0.157221
0.160025
0.162731
0.165339
0.167846
0.170251
0.172553
0.174751
0.176842
0.178826
0.180701
0.182466
0.184121
0.185664
0.187095
0.188412
0.189615
0.190702
0.191674
0.19253
0.193269
0.19389
0.194394
0.19478
0.195047
0.195196
0.195227
0.195139
0.194933
0.194608
0.194165
0.193604
0.192926
0.192131
0.191219
0.190191
0.189048
0.18779
0.186417
0.184932
0.183335
0.181626
0.179807
0.177878
0.175842
0.173699
0.171451
0.169098
0.166643
0.164087
0.161431
0.158677
0.155827
0.152883
0.149845
0.146717
0.143499
0.140195
0.136805
0.133332
0.129778
0.126146
0.122437
0.118654
0.114798
0.110874
0.106881
0.102825
0.0987052
0.094526
0.0902894
0.0859981
0.0816545
0.0772614
0.0728214
0.0683372
0.0638116
0.0592472
0.0546469
0.0500135
0.0453497
0.0406584
0.0359424
0.0312047
0.026448
0.0216753
0.0168894
0.0120934
0.00728998
0.0024822
-0.00232707
-0.0071349
-0.0119384
-0.0167346
-0.0215206
-0.0262935
-0.0310504
-0.0357885
-0.0405048
-0.0451964
-0.0498606
-0.0544945
-0.0590953
-0.0636602
-0.0681865
-0.0726713
-0.0771119
-0.0815057
-0.08585
-0.0901421
-0.0943795
-0.0985596
-0.10268
-0.106738
-0.110731
-0.114656
-0.118512
-0.122297
-0.126007
-0.129641
-0.133195
-0.136669
-0.14006
-0.143366
-0.146585
-0.149715
-0.152754
-0.1557
-0.158551
-0.161307
-0.163964
-0.166522
-0.168978
-0.171332
-0.173582
-0.175727
-0.177764
-0.179694
-0.181515
-0.183225
-0.184825
-0.186312
-0.187685
-0.188945
-0.19009
-0.19112
-0.192034
-0.192831
-0.193511
-0.194073
-0.194517
-0.194844
-0.195052
-0.195142
-0.195113
-0.194965
-0.1947
-0.194316
-0.193814
-0.193194
-0.192457
-0.191603
-0.190633
-0.189547
-0.188346
-0.18703
-0.185601
-0.18406
-0.182406
-0.180643
-0.178769
-0.176787
-0.174697
-0.172502
-0.170201
-0.167798
-0.165292
-0.162686
-0.159981
-0.157179
-0.154282
-0.151291
-0.148208
-0.145035
-0.141774
-0.138427
-0.134995
-0.131482
-0.127889
-0.124218
-0.120472
-0.116653
-0.112763
-0.108804
-0.10478
-0.100691
-0.0965418
-0.0923336
-0.0880695
-0.0837518
-0.0793832
-0.0749665
-0.0705042
-0.0659991
-0.0614539
-0.0568713
-0.0522543
-0.0476054
-0.0429277
-0.0382239
-0.0334969
-0.0287495
-0.0239847
-0.0192053
-0.0144142
-0.00961433
-0.00480863
0
0
0.00540116
0.0107991
0.0161904
0.0215719
0.0269404
0.0322925
0.037625
0.0429347
0.0482183
0.0534727
0.0586946
0.0638809
0.0690285
0.0741341
0.0791948
0.0842074
0.0891688
0.0940762
0.0989265
0.103717
0.108444
0.113105
0.117698
0.12222
0.126667
0.131037
0.135328
0.139536
0.14366
0.147697
0.151644
0.155499
0.15926
0.162924
0.166489
0.169953
0.173314
0.176569
0.179718
0.182757
0.185686
0.188501
0.191203
0.193788
0.196256
0.198604
0.200832
0.202938
0.204921
0.20678
0.208513
0.210119
0.211598
0.212949
0.214171
0.215262
0.216223
0.217053
0.217751
0.218316
0.21875
0.21905
0.219217
0.219252
0.219153
0.218921
0.218557
0.21806
0.21743
0.216668
0.215775
0.214751
0.213597
0.212312
0.210899
0.209358
0.20769
0.205896
0.203977
0.201934
0.199768
0.197482
0.195075
0.19255
0.189908
0.187151
0.18428
0.181297
0.178205
0.175004
0.171697
0.168285
0.164772
0.161158
0.157447
0.15364
0.14974
0.145749
0.14167
0.137504
0.133256
0.128926
0.124518
0.120035
0.115478
0.110852
0.106159
0.101401
0.0965812
0.0917031
0.0867693
0.081783
0.0767469
0.0716644
0.0665383
0.0613719
0.0561682
0.0509305
0.0456619
0.0403656
0.0350448
0.0297027
0.0243427
0.0189679
0.0135816
0.00818709
0.00278764
-0.00261346
-0.00801295
-0.0134075
-0.018794
-0.024169
-0.0295292
-0.0348716
-0.0401927
-0.0454894
-0.0507584
-0.0559966
-0.0612008
-0.0663678
-0.0714944
-0.0765777
-0.0816144
-0.0866015
-0.091536
-0.0964149
-0.101235
-0.105994
-0.110689
-0.115316
-0.119873
-0.124357
-0.128766
-0.133097
-0.137347
-0.141514
-0.145594
-0.149587
-0.153488
-0.157296
-0.161009
-0.164624
-0.168139
-0.171552
-0.17486
-0.178063
-0.181157
-0.184142
-0.187014
-0.189773
-0.192417
-0.194943
-0.197352
-0.19964
-0.201808
-0.203853
-0.205773
-0.20757
-0.209239
-0.210782
-0.212197
-0.213483
-0.21464
-0.215666
-0.216561
-0.217324
-0.217956
-0.218455
-0.218822
-0.219056
-0.219156
-0.219124
-0.218958
-0.21866
-0.218229
-0.217665
-0.216969
-0.216141
-0.215182
-0.214093
-0.212873
-0.211524
-0.210047
-0.208442
-0.20671
-0.204854
-0.202873
-0.200769
-0.198543
-0.196196
-0.19373
-0.191147
-0.188447
-0.185633
-0.182706
-0.179669
-0.176522
-0.173268
-0.169909
-0.166447
-0.162883
-0.159221
-0.155462
-0.151608
-0.147663
-0.143628
-0.139505
-0.135298
-0.131009
-0.12664
-0.122194
-0.117674
-0.113083
-0.108422
-0.103696
-0.0989075
-0.0940584
-0.0891523
-0.084192
-0.0791806
-0.074121
-0.0690165
-0.06387
-0.0586848
-0.0534639
-0.0482105
-0.0429278
-0.0376191
-0.0322875
-0.0269363
-0.0215687
-0.016188
-0.0107975
-0.00540039
0
0
0.00598973
0.0119758
0.0179547
0.0239226
0.0298761
0.0358114
0.041725
0.0476133
0.0534727
0.0592997
0.0650906
0.0708421
0.0765505
0.0822126
0.0878247
0.0933835
0.0988856
0.104328
0.109707
0.115019
0.120261
0.125431
0.130524
0.135538
0.14047
0.145316
0.150075
0.154742
0.159315
0.163792
0.168169
0.172444
0.176614
0.180678
0.184631
0.188473
0.1922
0.19581
0.199302
0.202672
0.20592
0.209043
0.212038
0.214905
0.217642
0.220246
0.222717
0.225053
0.227251
0.229312
0.231234
0.233016
0.234656
0.236154
0.237509
0.238719
0.239785
0.240705
0.241479
0.242106
0.242587
0.24292
0.243106
0.243144
0.243034
0.242777
0.242373
0.241822
0.241123
0.240279
0.239288
0.238153
0.236872
0.235448
0.233881
0.232172
0.230322
0.228333
0.226204
0.223939
0.221537
0.219001
0.216332
0.213532
0.210602
0.207545
0.204361
0.201053
0.197624
0.194074
0.190407
0.186624
0.182727
0.17872
0.174604
0.170383
0.166058
0.161632
0.157108
0.152488
0.147777
0.142975
0.138087
0.133115
0.128062
0.122932
0.117727
0.11245
0.107106
0.101696
0.0962246
0.0906949
0.0851101
0.0794737
0.073789
0.0680596
0.0622889
0.0564804
0.0506377
0.0447642
0.0388636
0.0329394
0.0269953
0.0210348
0.0150616
0.00907922
0.00309139
-0.00289827
-0.00888615
-0.0148686
-0.020842
-0.0268027
-0.0327471
-0.0386716
-0.0445725
-0.0504464
-0.0562896
-0.0620986
-0.0678699
-0.0735999
-0.0792852
-0.0849224
-0.0905079
-0.0960385
-0.101511
-0.106921
-0.112267
-0.117544
-0.12275
-0.127882
-0.132936
-0.137909
-0.142798
-0.147601
-0.152314
-0.156934
-0.16146
-0.165887
-0.170214
-0.174437
-0.178554
-0.182563
-0.186461
-0.190246
-0.193915
-0.197467
-0.200898
-0.204208
-0.207393
-0.210453
-0.213384
-0.216187
-0.218857
-0.221395
-0.223799
-0.226066
-0.228197
-0.230189
-0.23204
-0.233751
-0.235321
-0.236747
-0.238029
-0.239167
-0.24016
-0.241006
-0.241707
-0.24226
-0.242667
-0.242926
-0.243038
-0.243002
-0.242818
-0.242487
-0.242009
-0.241384
-0.240612
-0.239694
-0.238631
-0.237422
-0.23607
-0.234574
-0.232936
-0.231156
-0.229236
-0.227177
-0.22498
-0.222647
-0.220178
-0.217575
-0.214841
-0.211976
-0.208982
-0.205862
-0.202616
-0.199247
-0.195758
-0.192149
-0.188424
-0.184584
-0.180633
-0.176571
-0.172402
-0.168129
-0.163754
-0.159279
-0.154707
-0.150041
-0.145285
-0.14044
-0.13551
-0.130497
-0.125405
-0.120237
-0.114996
-0.109685
-0.104308
-0.0988673
-0.0933665
-0.0878089
-0.0821981
-0.0765373
-0.07083
-0.0650797
-0.0592899
-0.053464
-0.0476057
-0.0417185
-0.0358059
-0.0298716
-0.0239191
-0.017952
-0.0119741
-0.00598887
0
0
0.00657466
0.0131453
0.0197081
0.0262588
0.0327937
0.0393086
0.0457997
0.052263
0.0586946
0.0650906
0.0714471
0.0777602
0.0840262
0.0902411
0.0964013
0.102503
0.108542
0.114516
0.12042
0.126251
0.132005
0.13768
0.14327
0.148774
0.154187
0.159507
0.16473
0.169853
0.174873
0.179787
0.184592
0.189284
0.193862
0.198322
0.202662
0.206878
0.210969
0.214932
0.218765
0.222465
0.226029
0.229457
0.232745
0.235892
0.238896
0.241755
0.244467
0.24703
0.249444
0.251706
0.253816
0.255771
0.257572
0.259216
0.260703
0.262032
0.263202
0.264211
0.265061
0.26575
0.266277
0.266643
0.266846
0.266888
0.266768
0.266486
0.266042
0.265437
0.26467
0.263743
0.262656
0.26141
0.260004
0.258441
0.256721
0.254845
0.252815
0.250631
0.248295
0.245808
0.243172
0.240388
0.237459
0.234385
0.231169
0.227813
0.224318
0.220687
0.216923
0.213027
0.209001
0.204848
0.200572
0.196173
0.191655
0.187022
0.182274
0.177416
0.17245
0.16738
0.162208
0.156937
0.151572
0.146114
0.140568
0.134937
0.129223
0.123432
0.117565
0.111627
0.105622
0.0995518
0.0934216
0.0872347
0.0809949
0.074706
0.0683718
0.061996
0.0555827
0.0491357
0.0426588
0.0361561
0.0296315
0.0230889
0.0165324
0.00996584
0.00339327
-0.00318133
-0.00975396
-0.0163206
-0.0228773
-0.0294201
-0.0359451
-0.0424481
-0.0489253
-0.0553728
-0.0617867
-0.068163
-0.0744978
-0.0807874
-0.0870279
-0.0932156
-0.0993466
-0.105417
-0.111424
-0.117363
-0.12323
-0.129023
-0.134738
-0.14037
-0.145918
-0.151376
-0.156743
-0.162015
-0.167188
-0.17226
-0.177227
-0.182087
-0.186836
-0.191472
-0.195991
-0.200392
-0.20467
-0.208825
-0.212852
-0.21675
-0.220517
-0.22415
-0.227646
-0.231005
-0.234223
-0.237298
-0.24023
-0.243016
-0.245654
-0.248143
-0.250482
-0.252668
-0.254701
-0.256579
-0.258301
-0.259866
-0.261274
-0.262523
-0.263613
-0.264542
-0.265311
-0.265919
-0.266365
-0.266649
-0.266772
-0.266732
-0.266531
-0.266168
-0.265643
-0.264957
-0.264109
-0.263102
-0.261935
-0.260608
-0.259124
-0.257482
-0.255683
-0.25373
-0.251622
-0.249362
-0.246951
-0.244389
-0.24168
-0.238823
-0.235821
-0.232677
-0.229391
-0.225965
-0.222403
-0.218705
-0.214875
-0.210914
-0.206825
-0.20261
-0.198272
-0.193814
-0.189239
-0.184548
-0.179745
-0.174833
-0.169815
-0.164694
-0.159473
-0.154155
-0.148743
-0.143241
-0.137652
-0.131979
-0.126226
-0.120397
-0.114494
-0.108522
-0.102484
-0.096384
-0.0902252
-0.0840116
-0.077747
-0.0714351
-0.0650799
-0.0586851
-0.0522547
-0.0457925
-0.0393025
-0.0327887
-0.0262549
-0.0197052
-0.0131434
-0.00657372
0
0
0.00715561
0.0143069
0.0214495
0.0285791
0.0356914
0.042782
0.0498466
0.0568811
0.063881
0.0708421
0.0777602
0.0846312
0.0914508
0.0982149
0.104919
0.11156
0.118133
0.124635
0.13106
0.137407
0.14367
0.149845
0.15593
0.16192
0.167812
0.173601
0.179286
0.184862
0.190325
0.195673
0.200902
0.20601
0.210992
0.215846
0.220569
0.225158
0.229611
0.233924
0.238095
0.242122
0.246002
0.249732
0.253311
0.256736
0.260005
0.263116
0.266068
0.268858
0.271485
0.273947
0.276243
0.278371
0.280331
0.282121
0.283739
0.285185
0.286458
0.287557
0.288482
0.289231
0.289805
0.290203
0.290425
0.290471
0.29034
0.290033
0.28955
0.288891
0.288057
0.287048
0.285865
0.284508
0.282978
0.281277
0.279405
0.277364
0.275154
0.272777
0.270234
0.267528
0.264659
0.261629
0.258441
0.255095
0.251595
0.247942
0.244139
0.240188
0.23609
0.23185
0.227468
0.222949
0.218294
0.213507
0.20859
0.203547
0.19838
0.193093
0.187688
0.18217
0.176541
0.170804
0.164965
0.159025
0.152989
0.14686
0.140642
0.134338
0.127953
0.121491
0.114954
0.108348
0.101676
0.0949428
0.0881517
0.0813071
0.0744131
0.067474
0.060494
0.0534773
0.0464282
0.0393509
0.0322498