# vtk DataFile Version 3.0
Scalar Field Data
ASCII
DATASET STRUCTURED_POINTS
DIMENSIONS 256 256 1
ORIGIN 0 0 0
SPACING 0.00392157 0.00392157 1
POINT_DATA 65536
SCALARS scalars double
LOOKUP_TABLE default
0
0
0
0
0
0
0
0
0
0
0
0
0
0
0
0
0
0
0
0
0
0
0
0
0
0
0
0
0
0
0
0
0
0
0
0
0
0
0
0
0
0
0
0
0
0
0
0
0
0
0
0
0
0
0
0
0
0
0
0
0
0
0
0
0
0
0
0
0
0
0
0
0
0
0
0
0
0
0
0
0
0
0
0
0
0
0
0
0
0
0
0
0
0
0
0
0
0
0
0
0
0
0
0
0
0
0
0
0
0
0
0
0
0
0
0
0
0
0
0
0
0
0
0
0
0
0
0
0
0
0
0
0
0
0
0
0
0
0
0
0
0
0
0
0
0
0
0
0
0
0
0
0
0
0
0
0
0
0
0
0
0
0
0
0
0
0
0
0
0
0
0
0
0
0
0
0
0
0
0
0
0
0
0
0
0
0
0
0
0
0
0
0
0
0
0
0
0
0
0
0
0
0
0
0
0
0
0
0
0
0
0
0
0
0
0
0
0
0
0
0
0
0
0
0
0
0
0
0
0
0
0
0
0
0
0
0
0
0
0
0
0
0
0
0
0
0
0
0
0
0
0
0
0
0
0
0
-1.28359e-06
-2.56552e-06
-3.84496e-06
-5.1211e-06
-6.39312e-06
-7.66021e-06
-8.92155e-06
-1.01764e-05
-1.14238e-05
-1.26631e-05
-1.38935e-05
-1.51141e-05
-1.63243e-05
-1.75232e-05
-1.87101e-05
-1.98842e-05
-2.10447e-05
-2.2191e-05
-2.33223e-05
-2.44378e-05
-2.5537e-05
-2.6619e-05
-2.76832e-05
-2.87289e-05
-2.97554e-05
-3.07622e-05
-3.17485e-05
-3.27137e-05
-3.36572e-05
-3.45785e-05
-3.54769e-05
-3.63518e-05
-3.72028e-05
-3.80292e-05
-3.88305e-05
-3.96062e-05
-4.03559e-05
-4.10791e-05
-4.17752e-05
-4.24439e-05
-4.30847e-05
-4.36972e-05
-4.42811e-05
-4.48359e-05
-4.53612e-05
-4.58569e-05
-4.63225e-05
-4.67577e-05
-4.71622e-05
-4.75359e-05
-4.78784e-05
-4.81895e-05
-4.84691e-05
-4.87169e-05
-4.89328e-05
-4.91166e-05
-4.92682e-05
-4.93875e-05
-4.94744e-05
-4.95289e-05
-4.95509e-05
-4.95404e-05
-4.94973e-05
-4.94218e-05
-4.93466e-05
-4.92061e-05
-4.90332e-05
-4.8828e-05
-4.85908e-05
-4.83214e-05
-4.80203e-05
-4.76874e-05
-4.73231e-05
-4.69275e-05
-4.65009e-05
-4.60434e-05
-4.55555e-05
-4.50373e-05
-4.44892e-05
-4.39115e-05
-4.33045e-05
-4.26687e-05
-4.20044e-05
-4.1312e-05
-4.05918e-05
-3.98445e-05
-3.90703e-05
-3.82698e-05
-3.74434e-05
-3.65917e-05
-3.57151e-05
-3.48142e-05
-3.38895e-05
-3.29416e-05
-3.19711e-05
-3.09785e-05
-2.99644e-05
-2.89296e-05
-2.78744e-05
-2.67998e-05
-2.57061e-05
-2.45943e-05
-2.34648e-05
-2.23184e-05
-2.11558e-05
-1.99776e-05
-1.87847e-05
-1.75777e-05
-1.63574e-05
-1.51244e-05
-1.38796e-05
-1.26237e-05
-1.13574e-05
-1.00816e-05
-8.79692e-06
-7.50425e-06
-6.20434e-06
-4.89797e-06
-3.58594e-06
-2.26905e-06
-9.48084e-07
3.76145e-07
1.70284e-06
3.03119e-06
4.3604e-06
5.68965e-06
7.01815e-06
8.34508e-06
9.66715e-06
1.09861e-05
1.2301e-05
1.36111e-05
1.49157e-05
1.62139e-05
1.7505e-05
1.87882e-05
2.00626e-05
2.13275e-05
2.25822e-05
2.38259e-05
2.50578e-05
2.62772e-05
2.74833e-05
2.86754e-05
2.98527e-05
3.10147e-05
3.21605e-05
3.32894e-05
3.44008e-05
3.5494e-05
3.65684e-05
3.76232e-05
3.86578e-05
3.96717e-05
4.06641e-05
4.16345e-05
4.25823e-05
4.35069e-05
4.44078e-05
4.52843e-05
4.6136e-05
4.69624e-05
4.77629e-05
4.8537e-05
4.92843e-05
5.00044e-05
5.06967e-05
5.13609e-05
5.19965e-05
5.26032e-05
5.31805e-05
5.37282e-05
5.42459e-05
5.47333e-05
5.519e-05
5.56158e-05
5.60105e-05
5.63737e-05
5.67053e-05
5.7005e-05
5.72727e-05
5.75081e-05
5.77112e-05
5.78818e-05
5.80198e-05
5.81251e-05
5.81976e-05
5.82373e-05
5.82441e-05
5.82181e-05
5.81592e-05
5.81032e-05
5.79786e-05
5.78212e-05
5.76312e-05
5.74086e-05
5.71536e-05
5.68663e-05
5.65468e-05
5.61954e-05
5.58122e-05
5.53976e-05
5.49516e-05
5.44745e-05
5.39667e-05
5.34285e-05
5.286e-05
5.22618e-05
5.1634e-05
5.09771e-05
5.02915e-05
4.95775e-05
4.88356e-05
4.80662e-05
4.72698e-05
4.64467e-05
4.55975e-05
4.47228e-05
4.38229e-05
4.28984e-05
4.19499e-05
4.09779e-05
3.99829e-05
3.89656e-05
3.79266e-05
3.68664e-05
3.57856e-05
3.4685e-05
3.35651e-05
3.24265e-05
3.12701e-05
3.00963e-05
2.8906e-05
2.76997e-05
2.64783e-05
2.52423e-05
2.39926e-05
2.27299e-05
2.14548e-05
2.01682e-05
1.88707e-05
1.75632e-05
1.62464e-05
1.4921e-05
1.35879e-05
1.22477e-05
1.09013e-05
9.54946e-06
8.19296e-06
6.83257e-06
5.46909e-06
4.10331e-06
2.736e-06
1.36797e-06
6.03443e-18
0
-2.56552e-06
-5.12771e-06
-7.68494e-06
-1.02356e-05
-1.27779e-05
-1.53105e-05
-1.78315e-05
-2.03395e-05
-2.28328e-05
-2.53098e-05
-2.7769e-05
-3.02087e-05
-3.26274e-05
-3.50237e-05
-3.73959e-05
-3.97425e-05
-4.20621e-05
-4.43532e-05
-4.66143e-05
-4.88439e-05
-5.10408e-05
-5.32034e-05
-5.53304e-05
-5.74205e-05
-5.94722e-05
-6.14844e-05
-6.34557e-05
-6.53849e-05
-6.72708e-05
-6.91121e-05
-7.09077e-05
-7.26564e-05
-7.43572e-05
-7.60089e-05
-7.76105e-05
-7.9161e-05
-8.06594e-05
-8.21047e-05
-8.34961e-05
-8.48326e-05
-8.61134e-05
-8.73376e-05
-8.85045e-05
-8.96134e-05
-9.06634e-05
-9.16541e-05
-9.25846e-05
-9.34544e-05
-9.4263e-05
-9.50098e-05
-9.56944e-05
-9.63163e-05
-9.6875e-05
-9.73703e-05
-9.78017e-05
-9.81691e-05
-9.84721e-05
-9.87105e-05
-9.88843e-05
-9.89931e-05
-9.90371e-05
-9.9016e-05
-9.89299e-05
-9.87789e-05
-9.86286e-05
-9.83477e-05
-9.80022e-05
-9.75921e-05
-9.71178e-05
-9.65795e-05
-9.59776e-05
-9.53123e-05
-9.45841e-05
-9.37934e-05
-9.29406e-05
-9.20263e-05
-9.1051e-05
-9.00153e-05
-8.89197e-05
-8.77651e-05
-8.6552e-05
-8.52811e-05
-8.39533e-05
-8.25693e-05
-8.113e-05
-7.96362e-05
-7.80888e-05
-7.64888e-05
-7.48371e-05
-7.31347e-05
-7.13826e-05
-6.95819e-05
-6.77338e-05
-6.58392e-05
-6.38993e-05
-6.19154e-05
-5.98886e-05
-5.78201e-05
-5.57112e-05
-5.35632e-05
-5.13774e-05
-4.9155e-05
-4.68975e-05
-4.46062e-05
-4.22824e-05
-3.99277e-05
-3.75433e-05
-3.51309e-05
-3.26917e-05
-3.02274e-05
-2.77393e-05
-2.52291e-05
-2.26982e-05
-2.01481e-05
-1.75805e-05
-1.49968e-05
-1.23986e-05
-9.78752e-06
-7.16514e-06
-4.53303e-06
-1.89279e-06
7.53982e-07
3.40568e-06
6.06069e-06
8.7174e-06
1.13742e-05
1.40295e-05
1.66817e-05
1.93241e-05
2.19602e-05
2.45884e-05
2.7207e-05
2.98145e-05
3.24093e-05
3.49898e-05
3.75545e-05
4.01017e-05
4.263e-05
4.51378e-05
4.76235e-05
5.00857e-05
5.25229e-05
5.49335e-05
5.73162e-05
5.96694e-05
6.19918e-05
6.42819e-05
6.65384e-05
6.87598e-05
7.09448e-05
7.30921e-05
7.52003e-05
7.72683e-05
7.92947e-05
8.12783e-05
8.32178e-05
8.51122e-05
8.69602e-05
8.87608e-05
9.05127e-05
9.22151e-05
9.38667e-05
9.54667e-05
9.7014e-05
9.85076e-05
9.99468e-05
0.000101331
0.000102658
0.000103928
0.000105141
0.000106295
0.00010739
0.000108424
0.000109398
0.000110311
0.000111162
0.000111951
0.000112677
0.00011334
0.000113939
0.000114474
0.000114944
0.00011535
0.000115691
0.000115967
0.000116178
0.000116322
0.000116402
0.000116415
0.000116363
0.000116246
0.000116134
0.000115884
0.00011557
0.00011519
0.000114745
0.000114236
0.000113661
0.000113023
0.00011232
0.000111554
0.000110726
0.000109834
0.000108881
0.000107866
0.00010679
0.000105654
0.000104458
0.000103203
0.00010189
0.00010052
9.90927e-05
9.76099e-05
9.6072e-05
9.44801e-05
9.2835e-05
9.11378e-05
8.93893e-05
8.75906e-05
8.57428e-05
8.3847e-05
8.19042e-05
7.99155e-05
7.78822e-05
7.58054e-05
7.36863e-05
7.15262e-05
6.93263e-05
6.70879e-05
6.48123e-05
6.25008e-05
6.01547e-05
5.77755e-05
5.53646e-05
5.29232e-05
5.04529e-05
4.79551e-05
4.54311e-05
4.28826e-05
4.0311e-05
3.77177e-05
3.51043e-05
3.24723e-05
2.98232e-05
2.71586e-05
2.448e-05
2.17889e-05
1.90869e-05
1.63756e-05
1.36565e-05
1.09313e-05
8.20144e-06
5.46856e-06
2.73422e-06
1.20652e-17
0
-3.84496e-06
-7.68493e-06
-1.15175e-05
-1.53401e-05
-1.91504e-05
-2.29459e-05
-2.67242e-05
-3.04829e-05
-3.42196e-05
-3.7932e-05
-4.16175e-05
-4.52739e-05
-4.88989e-05
-5.24902e-05
-5.60454e-05
-5.95623e-05
-6.30387e-05
-6.64724e-05
-6.98611e-05
-7.32027e-05
-7.64951e-05
-7.97362e-05
-8.2924e-05
-8.60564e-05
-8.91313e-05
-9.2147e-05
-9.51014e-05
-9.79927e-05
-0.000100819
-0.000103579
-0.00010627
-0.00010889
-0.000111439
-0.000113915
-0.000116315
-0.000118639
-0.000120885
-0.000123051
-0.000125136
-0.000127139
-0.000129058
-0.000130893
-0.000132642
-0.000134304
-0.000135878
-0.000137362
-0.000138757
-0.00014006
-0.000141272
-0.000142391
-0.000143417
-0.000144349
-0.000145187
-0.000145929
-0.000146575
-0.000147126
-0.00014758
-0.000147937
-0.000148198
-0.000148361
-0.000148427
-0.000148395
-0.000148266
-0.00014804
-0.000147814
-0.000147393
-0.000146876
-0.000146261
-0.00014555
-0.000144743
-0.000143841
-0.000142844
-0.000141753
-0.000140567
-0.000139289
-0.000137919
-0.000136457
-0.000134905
-0.000133263
-0.000131533
-0.000129714
-0.00012781
-0.00012582
-0.000123745
-0.000121588
-0.000119349
-0.00011703
-0.000114632
-0.000112157
-0.000109605
-0.00010698
-0.000104281
-0.000101511
-9.86715e-05
-9.57642e-05
-9.27908e-05
-8.97531e-05
-8.66531e-05
-8.34924e-05
-8.02731e-05
-7.69971e-05
-7.36664e-05
-7.0283e-05
-6.68489e-05
-6.33663e-05
-5.98371e-05
-5.62637e-05
-5.2648e-05
-4.89924e-05
-4.52991e-05
-4.15702e-05
-3.7808e-05
-3.40148e-05
-3.0193e-05
-2.63448e-05
-2.24725e-05
-1.85786e-05
-1.46653e-05
-1.07351e-05
-6.7903e-06
-2.83331e-06
1.13347e-06
5.10762e-06
9.08675e-06
1.30684e-05
1.70503e-05
2.10298e-05
2.50047e-05
2.8965e-05
3.29158e-05
3.68546e-05
4.07792e-05
4.46872e-05
4.8576e-05
5.24435e-05
5.62872e-05
6.01047e-05
6.38939e-05
6.76523e-05
7.13778e-05
7.50679e-05
7.87205e-05
8.23334e-05
8.59044e-05
8.94312e-05
9.29118e-05
9.63441e-05
9.97258e-05
0.000103055
0.00010633
0.000109548
0.000112708
0.000115807
0.000118844
0.000121817
0.000124724
0.000127563
0.000130332
0.000133031
0.000135657
0.000138208
0.000140683
0.000143081
0.0001454
0.000147639
0.000149795
0.000151869
0.000153859
0.000155763
0.00015758
0.000159309
0.00016095
0.000162501
0.000163961
0.000165329
0.000166604
0.000167786
0.000168874
0.000169868
0.000170765
0.000171567
0.000172272
0.000172881
0.000173392
0.000173805
0.00017412
0.000174337
0.000174456
0.000174477
0.000174399
0.000174222
0.000174054
0.000173681
0.000173209
0.00017264
0.000171973
0.000171209
0.000170349
0.000169392
0.000168339
0.000167191
0.000165949
0.000164613
0.000163184
0.000161663
0.00016005
0.000158347
0.000156555
0.000154675
0.000152707
0.000150653
0.000148514
0.000146292
0.000143987
0.000141601
0.000139135
0.000136592
0.000133971
0.000131275
0.000128506
0.000125665
0.000122753
0.000119772
0.000116725
0.000113612
0.000110436
0.000107199
0.000103902
0.000100547
9.71365e-05
9.36722e-05
9.01561e-05
8.65903e-05
8.29769e-05
7.93179e-05
7.56156e-05
7.1872e-05
6.80893e-05
6.42697e-05
6.04155e-05
5.65289e-05
5.26121e-05
4.86674e-05
4.46971e-05
4.07035e-05
3.6689e-05
3.26558e-05
2.86062e-05
2.45427e-05
2.04675e-05
1.63831e-05
1.22918e-05
8.19592e-06
4.09787e-06
1.80887e-17
0
-5.12109e-06
-1.02355e-05
-1.53401e-05
-2.04315e-05
-2.55064e-05
-3.05616e-05
-3.5594e-05
-4.06002e-05
-4.55771e-05
-5.05215e-05
-5.54303e-05
-6.03003e-05
-6.51284e-05
-6.99116e-05
-7.46468e-05
-7.93309e-05
-8.39611e-05
-8.85344e-05
-9.30478e-05
-9.74985e-05
-0.000101884
-0.0001062
-0.000110446
-0.000114618
-0.000118714
-0.00012273
-0.000126665
-0.000130516
-0.000134281
-0.000137956
-0.00014154
-0.000145031
-0.000148426
-0.000151723
-0.00015492
-0.000158015
-0.000161006
-0.000163891
-0.000166668
-0.000169336
-0.000171892
-0.000174336
-0.000176665
-0.000178879
-0.000180975
-0.000182952
-0.000184809
-0.000186546
-0.00018816
-0.00018965
-0.000191017
-0.000192258
-0.000193373
-0.000194362
-0.000195223
-0.000195956
-0.000196561
-0.000197037
-0.000197383
-0.000197601
-0.000197688
-0.000197646
-0.000197474
-0.000197173
-0.000196873
-0.000196312
-0.000195622
-0.000194803
-0.000193856
-0.000192782
-0.00019158
-0.000190252
-0.000188798
-0.00018722
-0.000185517
-0.000183692
-0.000181745
-0.000179678
-0.000177491
-0.000175186
-0.000172764
-0.000170227
-0.000167577
-0.000164814
-0.000161941
-0.000158959
-0.00015587
-0.000152676
-0.000149379
-0.000145981
-0.000142483
-0.000138889
-0.000135199
-0.000131417
-0.000127545
-0.000123585
-0.000119539
-0.00011541
-0.0001112
-0.000106912
-0.000102549
-9.81126e-05
-9.36062e-05
-8.90323e-05
-8.43936e-05
-7.96931e-05
-7.49336e-05
-7.01178e-05
-6.52489e-05
-6.03296e-05
-5.5363e-05
-5.03522e-05
-4.53e-05
-4.02096e-05
-3.50841e-05
-2.99266e-05
-2.47402e-05
-1.95281e-05
-1.42934e-05
-9.03923e-06
-3.76886e-06
1.51455e-06
6.80778e-06
1.21076e-05
1.74109e-05
2.27143e-05
2.80147e-05
3.33089e-05
3.85837e-05
4.38458e-05
4.9092e-05
5.43193e-05
5.95243e-05
6.47039e-05
6.9855e-05
7.49744e-05
8.00591e-05
8.51059e-05
9.01118e-05
9.50737e-05
9.99887e-05
0.000104854
0.000109666
0.000114422
0.000119119
0.000123755
0.000128327
0.000132831
0.000137265
0.000141627
0.000145913
0.000150121
0.000154249
0.000158294
0.000162254
0.000166125
0.000169907
0.000173596
0.00017719
0.000180687
0.000184085
0.000187382
0.000190576
0.000193664
0.000196646
0.000199519
0.000202281
0.000204931
0.000207466
0.000209887
0.00021219
0.000214375
0.000216441
0.000218385
0.000220207
0.000221906
0.000223481
0.00022493
0.000226252
0.000227448
0.000228516
0.000229455
0.000230265
0.000230946
0.000231496
0.000231916
0.000232206
0.000232364
0.000232391
0.000232287
0.000232052
0.000231828
0.000231331
0.000230703
0.000229945
0.000229057
0.000228039
0.000226892
0.000225618
0.000224216
0.000222687
0.000221032
0.000219252
0.000217349
0.000215323
0.000213175
0.000210907
0.00020852
0.000206015
0.000203394
0.000200659
0.00019781
0.00019485
0.00019178
0.000188602
0.000185318
0.00018193
0.00017844
0.000174849
0.000171161
0.000167376
0.000163498
0.000159528
0.000155469
0.000151323
0.000147093
0.000142781
0.00013839
0.000133921
0.000129379
0.000124764
0.000120081
0.000115332
0.000110519
0.000105646
0.000100714
9.57281e-05
9.06899e-05
8.56025e-05
8.0469e-05
7.52923e-05
7.00754e-05
6.48214e-05
5.95332e-05
5.42141e-05
4.8867e-05
4.3495e-05
3.81013e-05
3.2689e-05
2.72612e-05
2.18211e-05
1.63718e-05
1.09164e-05
5.45806e-06
2.41011e-17
0
-6.39311e-06
-1.27779e-05
-1.91504e-05
-2.55064e-05
-3.18418e-05
-3.81527e-05
-4.4435e-05
-5.06847e-05
-5.68978e-05
-6.30704e-05
-6.91984e-05
-7.52781e-05
-8.13054e-05
-8.72767e-05
-9.3188e-05
-9.90357e-05
-0.000104816
-0.000110525
-0.00011616
-0.000121716
-0.00012719
-0.000132579
-0.00013788
-0.000143088
-0.000148201
-0.000153215
-0.000158127
-0.000162935
-0.000167634
-0.000172222
-0.000176697
-0.000181054
-0.000185292
-0.000189408
-0.000193399
-0.000197263
-0.000200997
-0.000204599
-0.000208066
-0.000211396
-0.000214588
-0.000217638
-0.000220546
-0.000223309
-0.000225926
-0.000228394
-0.000230713
-0.00023288
-0.000234895
-0.000236756
-0.000238462
-0.000240011
-0.000241403
-0.000242637
-0.000243712
-0.000244628
-0.000245383
-0.000245977
-0.00024641
-0.000246681
-0.00024679
-0.000246737
-0.000246523
-0.000246146
-0.000245771
-0.000245071
-0.00024421
-0.000243188
-0.000242006
-0.000240664
-0.000239164
-0.000237506
-0.000235691
-0.00023372
-0.000231595
-0.000229317
-0.000226886
-0.000224305
-0.000221575
-0.000218697
-0.000215674
-0.000212507
-0.000209198
-0.000205749
-0.000202162
-0.000198439
-0.000194583
-0.000190595
-0.000186479
-0.000182237
-0.00017787
-0.000173383
-0.000168777
-0.000164056
-0.000159221
-0.000154277
-0.000149226
-0.000144072
-0.000138816
-0.000133463
-0.000128016
-0.000122478
-0.000116852
-0.000111142
-0.000105351
-9.94828e-05
-9.35409e-05
-8.7529e-05
-8.14505e-05
-7.53093e-05
-6.9109e-05
-6.28534e-05
-5.65462e-05
-5.01914e-05
-4.37927e-05
-3.73541e-05
-3.08794e-05
-2.43725e-05
-1.78375e-05
-1.12782e-05
-4.69864e-06
1.89717e-06
8.50525e-06
1.51216e-05
2.17422e-05
2.8363e-05
3.49801e-05
4.15893e-05
4.81743e-05
5.47435e-05
6.1293e-05
6.78186e-05
7.43165e-05
8.07828e-05
8.72134e-05
9.36045e-05
9.99522e-05
0.000106253
0.000112502
0.000118696
0.000124832
0.000130906
0.000136913
0.000142851
0.000148715
0.000154502
0.000160209
0.000165832
0.000171368
0.000176813
0.000182164
0.000187418
0.000192571
0.000197621
0.000202564
0.000207397
0.000212118
0.000216723
0.00022121
0.000225576
0.000229818
0.000233934
0.000237921
0.000241776
0.000245499
0.000249085
0.000252533
0.000255841
0.000259007
0.000262028
0.000264904
0.000267632
0.00027021
0.000272637
0.000274912
0.000277033
0.000278998
0.000280807
0.000282459
0.000283951
0.000285284
0.000286457
0.000287468
0.000288318
0.000289005
0.000289529
0.00028989
0.000290088
0.000290122
0.000289992
0.000289698
0.000289419
0.000288798
0.000288014
0.000287067
0.000285958
0.000284688
0.000283257
0.000281665
0.000279915
0.000278006
0.00027594
0.000273719
0.000271342
0.000268813
0.000266132
0.0002633
0.00026032
0.000257193
0.000253921
0.000250506
0.000246949
0.000243254
0.000239421
0.000235454
0.000231354
0.000227124
0.000222767
0.000218284
0.000213679
0.000208955
0.000204113
0.000199157
0.00019409
0.000188914
0.000183633
0.00017825
0.000172768
0.000167189
0.000161518
0.000155758
0.000149911
0.000143982
0.000137974
0.000131889
0.000125733
0.000119508
0.000113218
0.000106867
0.000100459
9.39959e-05
8.74831e-05
8.09239e-05
7.43221e-05
6.76816e-05
6.10062e-05
5.42998e-05
4.75662e-05
4.08094e-05
3.40333e-05
2.72417e-05
2.04387e-05
1.36281e-05
6.81391e-06
3.0099e-17
0
-7.66019e-06
-1.53104e-05
-2.29459e-05
-3.05616e-05
-3.81527e-05
-4.57144e-05
-5.32418e-05
-6.07302e-05
-6.81747e-05
-7.55706e-05
-8.29131e-05
-9.01977e-05
-9.74197e-05
-0.000104574
-0.000111657
-0.000118664
-0.00012559
-0.000132431
-0.000139182
-0.000145839
-0.000152398
-0.000158856
-0.000165206
-0.000171447
-0.000177573
-0.000183581
-0.000189467
-0.000195227
-0.000200858
-0.000206355
-0.000211717
-0.000216938
-0.000222016
-0.000226948
-0.00023173
-0.000236359
-0.000240833
-0.000245148
-0.000249303
-0.000253293
-0.000257117
-0.000260772
-0.000264256
-0.000267567
-0.000270702
-0.00027366
-0.000276438
-0.000279035
-0.000281449
-0.000283679
-0.000285722
-0.000287579
-0.000289247
-0.000290725
-0.000292014
-0.00029311
-0.000294015
-0.000294726
-0.000295245
-0.00029557
-0.0002957
-0.000295637
-0.00029538
-0.000294929
-0.00029448
-0.000293641
-0.000292609
-0.000291384
-0.000289968
-0.00028836
-0.000286562
-0.000284576
-0.000282401
-0.00028004
-0.000277493
-0.000274763
-0.00027185
-0.000268757
-0.000265486
-0.000262038
-0.000258416
-0.000254621
-0.000250656
-0.000246523
-0.000242225
-0.000237764
-0.000233144
-0.000228366
-0.000223434
-0.00021835
-0.000213118
-0.000207742
-0.000202223
-0.000196566
-0.000190773
-0.000184849
-0.000178797
-0.00017262
-0.000166323
-0.000159909
-0.000153382
-0.000146746
-0.000140005
-0.000133163
-0.000126225
-0.000119193
-0.000112074
-0.00010487
-9.75868e-05
-9.02283e-05
-8.27991e-05
-7.53035e-05
-6.77462e-05
-6.01318e-05
-5.24648e-05
-4.475e-05
-3.69919e-05
-2.91953e-05
-2.13649e-05
-1.35055e-05
-5.62187e-06
2.28129e-06
1.01992e-05
1.81269e-05
2.60598e-05
3.39929e-05
4.19215e-05
4.98408e-05
5.7731e-05
6.56023e-05
7.34498e-05
8.12689e-05
8.90548e-05
9.68026e-05
0.000104508
0.000112166
0.000119772
0.000127321
0.000134809
0.000142231
0.000149583
0.00015686
0.000164058
0.000171173
0.000178199
0.000185134
0.000191972
0.000198709
0.000205342
0.000211866
0.000218278
0.000224573
0.000230748
0.000236798
0.000242721
0.000248512
0.000254169
0.000259687
0.000265063
0.000270294
0.000275377
0.000280308
0.000285086
0.000289706
0.000294165
0.000298462
0.000302594
0.000306558
0.000310351
0.000313971
0.000317417
0.000320685
0.000323775
0.000326683
0.000329408
0.00033195
0.000334305
0.000336472
0.000338451
0.000340239
0.000341836
0.000343241
0.000344453
0.000345471
0.000346294
0.000346922
0.000347355
0.000347591
0.000347632
0.000347476
0.000347124
0.000346789
0.000346045
0.000345106
0.000343971
0.000342643
0.00034112
0.000339405
0.000337498
0.000335401
0.000333114
0.000330638
0.000327976
0.000325129
0.000322098
0.000318885
0.000315492
0.000311921
0.000308175
0.000304254
0.000300162
0.0002959
0.000291472
0.00028688
0.000282126
0.000277214
0.000272145
0.000266924
0.000261553
0.000256036
0.000250374
0.000244573
0.000238634
0.000232563
0.000226361
0.000220033
0.000213583
0.000207014
0.00020033
0.000193535
0.000186632
0.000179627
0.000172522
0.000165323
0.000158033
0.000150656
0.000143197
0.000135661
0.000128051
0.000120372
0.000112628
0.000104824
9.69647e-05
8.90543e-05
8.10975e-05
7.30989e-05
6.50631e-05
5.69948e-05
4.88987e-05
4.07794e-05
3.26416e-05
2.44901e-05
1.63295e-05
8.16457e-06
3.60785e-17
0
-8.92152e-06
-1.78315e-05
-2.67242e-05
-3.55939e-05
-4.4435e-05
-5.32418e-05
-6.20087e-05
-7.073e-05
-7.94003e-05
-8.80141e-05
-9.65657e-05
-0.00010505
-0.000113461
-0.000121794
-0.000130043
-0.000138203
-0.000146269
-0.000154237
-0.000162099
-0.000169853
-0.000177492
-0.000185013
-0.000192409
-0.000199677
-0.000206812
-0.000213809
-0.000220664
-0.000227373
-0.000233931
-0.000240334
-0.000246578
-0.000252659
-0.000258573
-0.000264317
-0.000269886
-0.000275278
-0.000280488
-0.000285514
-0.000290352
-0.000295
-0.000299453
-0.00030371
-0.000307768
-0.000311624
-0.000315275
-0.00031872
-0.000321955
-0.00032498
-0.000327791
-0.000330388
-0.000332768
-0.00033493
-0.000336873
-0.000338595
-0.000340095
-0.000341372
-0.000342425
-0.000343254
-0.000343858
-0.000344236
-0.000344388
-0.000344315
-0.000344015
-0.000343489
-0.000342966
-0.000341989
-0.000340787
-0.000339361
-0.000337711
-0.000335838
-0.000333745
-0.000331431
-0.000328898
-0.000326148
-0.000323182
-0.000320002
-0.000316609
-0.000313007
-0.000309197
-0.000305181
-0.000300962
-0.000296542
-0.000291924
-0.000287111
-0.000282105
-0.00027691
-0.000271528
-0.000265963
-0.000260219
-0.000254298
-0.000248205
-0.000241943
-0.000235515
-0.000228926
-0.00022218
-0.00021528
-0.000208231
-0.000201038
-0.000193703
-0.000186233
-0.000178631
-0.000170902
-0.000163051
-0.000155083
-0.000147001
-0.000138812
-0.00013052
-0.00012213
-0.000113647
-0.000105077
-9.64243e-05
-8.76944e-05
-7.88926e-05
-7.00242e-05
-6.10947e-05
-5.21094e-05
-4.30737e-05
-3.39932e-05
-2.48734e-05
-1.57197e-05
-6.53778e-06
2.66685e-06
1.18886e-05
2.11219e-05
3.03611e-05
3.96006e-05
4.88348e-05
5.80582e-05
6.72477e-05
7.64152e-05
8.55551e-05
9.46617e-05
0.00010373
0.000112753
0.000121728
0.000130646
0.000139505
0.000148297
0.000157018
0.000165663
0.000174225
0.000182701
0.000191084
0.00019937
0.000207554
0.00021563
0.000223594
0.000231441
0.000239166
0.000246765
0.000254232
0.000261564
0.000268755
0.000275802
0.0002827
0.000289445
0.000296033
0.000302459
0.000308721
0.000314813
0.000320733
0.000326477
0.000332041
0.000337421
0.000342616
0.00034762
0.000352432
0.000357048
0.000361466
0.000365683
0.000369696
0.000373502
0.0003771
0.000380487
0.000383662
0.000386621
0.000389364
0.000391888
0.000394192
0.000396275
0.000398136
0.000399772
0.000401183
0.000402368
0.000403327
0.000404058
0.000404562
0.000404837
0.000404884
0.000404703
0.000404293
0.000403903
0.000403037
0.000401942
0.000400621
0.000399073
0.0003973
0.000395303
0.000393082
0.000390639
0.000387975
0.000385092
0.000381991
0.000378675
0.000375145
0.000371403
0.000367451
0.000363292
0.000358928
0.000354362
0.000349595
0.000344632
0.000339475
0.000334126
0.000328589
0.000322868
0.000316965
0.000310884
0.000304628
0.000298202
0.000291608
0.000284851
0.000277935
0.000270863
0.00026364
0.00025627
0.000248758
0.000241107
0.000233322
0.000225407
0.000217368
0.000209209
0.000200935
0.00019255
0.000184059
0.000175467
0.00016678
0.000158002
0.000149139
0.000140195
0.000131176
0.000122087
0.000112934
0.00010372
9.44533e-05
8.51374e-05
7.57782e-05
6.63812e-05
5.69517e-05
4.74953e-05
3.80173e-05
2.85233e-05
1.90188e-05
9.50917e-06
4.20362e-17
0
-1.01763e-05
-2.03394e-05
-3.04828e-05
-4.06e-05
-5.06846e-05
-6.073e-05
-7.073e-05
-8.0678e-05
-9.05677e-05
-0.000100393
-0.000110147
-0.000119825
-0.000129419
-0.000138923
-0.000148333
-0.000157641
-0.000166842
-0.000175929
-0.000184898
-0.000193742
-0.000202456
-0.000211034
-0.000219471
-0.000227761
-0.000235899
-0.000243881
-0.0002517
-0.000259352
-0.000266832
-0.000274135
-0.000281258
-0.000288194
-0.00029494
-0.000301491
-0.000307844
-0.000313994
-0.000319937
-0.00032567
-0.000331188
-0.000336489
-0.000341569
-0.000346425
-0.000351053
-0.000355451
-0.000359616
-0.000363545
-0.000367236
-0.000370686
-0.000373892
-0.000376854
-0.000379569
-0.000382035
-0.000384251
-0.000386215
-0.000387926
-0.000389383
-0.000390584
-0.000391529
-0.000392218
-0.000392649
-0.000392823
-0.000392739
-0.000392397
-0.000391797
-0.0003912
-0.000390086
-0.000388714
-0.000387087
-0.000385205
-0.000383069
-0.000380681
-0.000378041
-0.000375152
-0.000372015
-0.000368631
-0.000365004
-0.000361135
-0.000357026
-0.000352679
-0.000348099
-0.000343286
-0.000338244
-0.000332976
-0.000327486
-0.000321776
-0.00031585
-0.000309711
-0.000303364
-0.000296811
-0.000290058
-0.000283107
-0.000275964
-0.000268632
-0.000261116
-0.000253421
-0.000245551
-0.00023751
-0.000229305
-0.000220939
-0.000212418
-0.000203747
-0.00019493
-0.000185975
-0.000176885
-0.000167667
-0.000158326
-0.000148868
-0.000139297
-0.000129622
-0.000119846
-0.000109976
-0.000100018
-8.99781e-05
-7.98623e-05
-6.96766e-05
-5.94274e-05
-4.91208e-05
-3.8763e-05
-2.83603e-05
-1.79191e-05
-7.44558e-06
3.05379e-06
1.35727e-05
2.41047e-05
3.46435e-05
4.51827e-05
5.57158e-05
6.62366e-05
7.67187e-05
8.71757e-05
9.76011e-05
0.000107989
0.000118332
0.000128625
0.000138862
0.000149035
0.000159139
0.000169168
0.000179116
0.000188977
0.000198744
0.000208411
0.000217974
0.000227425
0.00023676
0.000245972
0.000255057
0.000264007
0.000272819
0.000281486
0.000290004
0.000298367
0.00030657
0.000314608
0.000322476
0.00033017
0.000337684
0.000345015
0.000352157
0.000359106
0.000365859
0.00037241
0.000378756
0.000384894
0.000390819
0.000396527
0.000402016
0.000407281
0.00041232
0.00041713
0.000421707
0.000426049
0.000430153
0.000434017
0.000437637
0.000441013
0.000444141
0.000447021
0.000449649
0.000452025
0.000454147
0.000456013
0.000457622
0.000458974
0.000460068
0.000460902
0.000461476
0.00046179
0.000461844
0.000461637
0.000461169
0.000460724
0.000459736
0.000458487
0.00045698
0.000455215
0.000453192
0.000450913
0.00044838
0.000445593
0.000442554
0.000439266
0.000435729
0.000431946
0.000427919
0.000423651
0.000419143
0.000414399
0.000409421
0.000404212
0.000398775
0.000393114
0.000387231
0.00038113
0.000374814
0.000368288
0.000361554
0.000354618
0.000347482
0.000340152
0.00033263
0.000324923
0.000317034
0.000308967
0.000300728
0.000292321
0.000283752
0.000275024
0.000266144
0.000257117
0.000247947
0.00023864
0.000229201
0.000219636
0.000209951
0.000200151
0.000190242
0.000180229
0.000170119
0.000159917
0.000149629
0.000139262
0.00012882
0.000118311
0.00010774
9.7114e-05
8.64382e-05
7.57193e-05
6.49633e-05
5.41766e-05
4.33653e-05
3.25358e-05
2.16942e-05
1.08469e-05
4.79683e-17
0
-1.14237e-05
-2.28327e-05
-3.42195e-05
-4.55769e-05
-5.68976e-05
-6.81744e-05
-7.94002e-05
-9.05676e-05
-0.00010167
-0.000112699
-0.000123649
-0.000134513
-0.000145283
-0.000155953
-0.000166516
-0.000176965
-0.000187293
-0.000197495
-0.000207563
-0.000217491
-0.000227273
-0.000236903
-0.000246374
-0.00025568
-0.000264816
-0.000273775
-0.000282553
-0.000291143
-0.00029954
-0.000307739
-0.000315734
-0.000323521
-0.000331093
-0.000338448
-0.000345579
-0.000352483
-0.000359155
-0.00036559
-0.000371785
-0.000377736
-0.000383438
-0.000388889
-0.000394085
-0.000399022
-0.000403697
-0.000408107
-0.00041225
-0.000416123
-0.000419723
-0.000423048
-0.000426095
-0.000428864
-0.000431351
-0.000433556
-0.000435476
-0.000437111
-0.00043846
-0.000439521
-0.000440294
-0.000440778
-0.000440973
-0.000440878
-0.000440494
-0.00043982
-0.000439151
-0.000437899
-0.000436359
-0.000434533
-0.00043242
-0.000430022
-0.000427341
-0.000424377
-0.000421134
-0.000417612
-0.000413814
-0.000409741
-0.000405398
-0.000400785
-0.000395906
-0.000390763
-0.00038536
-0.0003797
-0.000373787
-0.000367623
-0.000361213
-0.00035456
-0.000347669
-0.000340543
-0.000333187
-0.000325606
-0.000317803
-0.000309784
-0.000301553
-0.000293116
-0.000284477
-0.000275642
-0.000266615
-0.000257404
-0.000248012
-0.000238446
-0.000228712
-0.000218815
-0.000208762
-0.000198558
-0.000188209
-0.000177723
-0.000167105
-0.000156361
-0.000145499
-0.000134525
-0.000123445
-0.000112266
-0.000100995
-8.96394e-05
-7.8205e-05
-6.66993e-05
-5.5129e-05
-4.35014e-05
-3.18234e-05
-2.0102e-05
-8.34453e-06
3.44205e-06
1.52505e-05
2.70738e-05
3.89046e-05
5.07358e-05
6.25603e-05
7.43709e-05
8.6138e-05
9.7877e-05
0.000109581
0.000121242
0.000132853
0.000144408
0.000155899
0.00016732
0.000178663
0.000189922
0.000201089
0.000212158
0.000223122
0.000233975
0.00024471
0.00025532
0.000265799
0.000276141
0.000286339
0.000296387
0.000306279
0.000316009
0.000325571
0.000334959
0.000344167
0.000353191
0.000362023
0.00037066
0.000379096
0.000387325
0.000395342
0.000403144
0.000410724
0.000418078
0.000425203
0.000432093
0.000438744
0.000445152
0.000451313
0.000457224
0.000462881
0.00046828
0.000473418
0.000478293
0.0004829
0.000487237
0.000491301
0.000495091
0.000498602
0.000501835
0.000504785
0.000507452
0.000509834
0.000511929
0.000513735
0.000515253
0.00051648
0.000517417
0.000518061
0.000518414
0.000518474
0.000518241
0.000517716
0.000517217
0.000516107
0.000514705
0.000513013
0.000511031
0.00050876
0.000506202
0.000503358
0.000500229
0.000496818
0.000493126
0.000489155
0.000484908
0.000480388
0.000475596
0.000470536
0.00046521
0.000459621
0.000453774
0.00044767
0.000441314
0.00043471
0.000427861
0.000420771
0.000413444
0.000405885
0.000398098
0.000390087
0.000381858
0.000373415
0.000364762
0.000355905
0.00034685
0.000337601
0.000328163
0.000318543
0.000308745
0.000298776
0.000288642
0.000278347
0.000267899
0.000257303
0.000246566
0.000235693
0.000224692
0.000213568
0.000202327
0.000190977
0.000179525
0.000167975
0.000156337
0.000144615
0.000132817
0.00012095
0.000109021
9.70364e-05
8.50032e-05
7.29284e-05
6.08192e-05
4.86823e-05
3.6525e-05
2.43541e-05
1.21768e-05
5.38713e-17
0
-1.2663e-05
-2.53096e-05
-3.79317e-05
-5.05212e-05
-6.307e-05
-7.55702e-05
-8.80137e-05
-0.000100393
-0.000112699
-0.000124925
-0.000137063
-0.000149105
-0.000161044
-0.000172871
-0.00018458
-0.000196162
-0.000207611
-0.00021892
-0.00023008
-0.000241085
-0.000251928
-0.000262602
-0.000273101
-0.000283417
-0.000293544
-0.000303475
-0.000313205
-0.000322727
-0.000332035
-0.000341123
-0.000349985
-0.000358616
-0.000367011
-0.000375163
-0.000383068
-0.00039072
-0.000398116
-0.000405249
-0.000412116
-0.000418712
-0.000425034
-0.000431076
-0.000436835
-0.000442307
-0.000447489
-0.000452378
-0.000456971
-0.000461263
-0.000465254
-0.000468939
-0.000472317
-0.000475386
-0.000478143
-0.000480586
-0.000482715
-0.000484527
-0.000486022
-0.000487198
-0.000488055
-0.000488591
-0.000488807
-0.000488702
-0.000488276
-0.000487529
-0.000486787
-0.000485399
-0.000483692
-0.000481667
-0.000479325