# vtk DataFile Version 3.0
Scalar Field Data
ASCII
DATASET STRUCTURED_POINTS
DIMENSIONS 256 256 1
ORIGIN 0 0 0
SPACING 0.00392157 0.00392157 1
POINT_DATA 65536
SCALARS scalars double
LOOKUP_TABLE default
0
0
0
0
0
0
0
0
0
0
0
0
0
0
0
0
0
0
0
0
0
0
0
0
0
0
0
0
0
0
0
0
0
0
0
0
0
0
0
0
0
0
0
0
0
0
0
0
0
0
0
0
0
0
0
0
0
0
0
0
0
0
0
0
0
0
0
0
0
0
0
0
0
0
0
0
0
0
0
0
0
0
0
0
0
0
0
0
0
0
0
0
0
0
0
0
0
0
0
0
0
0
0
0
0
0
0
0
0
0
0
0
0
0
0
0
0
0
0
0
0
0
0
0
0
0
0
0
0
0
0
0
0
0
0
0
0
0
0
0
0
0
0
0
0
0
0
0
0
0
0
0
0
0
0
0
0
0
0
0
0
0
0
0
0
0
0
0
0
0
0
0
0
0
0
0
0
0
0
0
0
0
0
0
0
0
0
0
0
0
0
0
0
0
0
0
0
0
0
0
0
0
0
0
0
0
0
0
0
0
0
0
0
0
0
0
0
0
0
0
0
0
0
0
0
0
0
0
0
0
0
0
0
0
0
0
0
0
0
0
0
0
0
0
0
0
0
0
0
0
0
0
0
0
0
0
0
-2.23666e-06
-4.4705e-06
-6.70013e-06
-8.92417e-06
-1.11412e-05
-1.33499e-05
-1.55489e-05
-1.77367e-05
-1.99121e-05
-2.20738e-05
-2.42202e-05
-2.63502e-05
-2.84624e-05
-3.05555e-05
-3.26281e-05
-3.46791e-05
-3.67072e-05
-3.8711e-05
-4.06894e-05
-4.26412e-05
-4.4565e-05
-4.64598e-05
-4.83244e-05
-5.01576e-05
-5.19582e-05
-5.37253e-05
-5.54576e-05
-5.71541e-05
-5.88139e-05
-6.04357e-05
-6.20187e-05
-6.35619e-05
-6.50643e-05
-6.6525e-05
-6.79431e-05
-6.93177e-05
-7.0648e-05
-7.19331e-05
-7.31723e-05
-7.43648e-05
-7.55098e-05
-7.66067e-05
-7.76548e-05
-7.86534e-05
-7.96019e-05
-8.04998e-05
-8.13464e-05
-8.21413e-05
-8.28839e-05
-8.35739e-05
-8.42107e-05
-8.47939e-05
-8.53233e-05
-8.57985e-05
-8.62192e-05
-8.65851e-05
-8.68959e-05
-8.71516e-05
-8.73519e-05
-8.74967e-05
-8.75859e-05
-8.76194e-05
-8.75973e-05
-8.75194e-05
-8.73296e-05
-8.70842e-05
-8.67835e-05
-8.64275e-05
-8.60166e-05
-8.5551e-05
-8.50309e-05
-8.44566e-05
-8.38285e-05
-8.3147e-05
-8.24124e-05
-8.16252e-05
-8.07859e-05
-7.98949e-05
-7.89528e-05
-7.79602e-05
-7.69176e-05
-7.58257e-05
-7.46851e-05
-7.34964e-05
-7.22605e-05
-7.09781e-05
-6.96498e-05
-6.82765e-05
-6.68591e-05
-6.53983e-05
-6.38951e-05
-6.23503e-05
-6.07649e-05
-5.91397e-05
-5.74759e-05
-5.57743e-05
-5.40361e-05
-5.22621e-05
-5.04536e-05
-4.86115e-05
-4.6737e-05
-4.48312e-05
-4.28952e-05
-4.09303e-05
-3.89375e-05
-3.6918e-05
-3.48731e-05
-3.2804e-05
-3.07119e-05
-2.85981e-05
-2.64638e-05
-2.43103e-05
-2.2139e-05
-1.9951e-05
-1.77477e-05
-1.55304e-05
-1.33005e-05
-1.10593e-05
-8.80804e-06
-6.54816e-06
-4.28099e-06
-2.00788e-06
2.69817e-07
2.55074e-06
4.83352e-06
7.1168e-06
9.39922e-06
1.16794e-05
1.39528e-05
1.62212e-05
1.84833e-05
2.07377e-05
2.29832e-05
2.52183e-05
2.74417e-05
2.96522e-05
3.18483e-05
3.40288e-05
3.61923e-05
3.83377e-05
4.04635e-05
4.25685e-05
4.46515e-05
4.67113e-05
4.87465e-05
5.0756e-05
5.27386e-05
5.4693e-05
5.66183e-05
5.8513e-05
6.03763e-05
6.22069e-05
6.40037e-05
6.57657e-05
6.74918e-05
6.9181e-05
7.08323e-05
7.24447e-05
7.40173e-05
7.5549e-05
7.7039e-05
7.84864e-05
7.98904e-05
8.125e-05
8.25646e-05
8.38332e-05
8.50552e-05
8.62297e-05
8.73562e-05
8.84339e-05
8.94622e-05
9.04405e-05
9.13682e-05
9.22447e-05
9.30696e-05
9.38422e-05
9.45622e-05
9.52292e-05
9.58426e-05
9.64022e-05
9.69076e-05
9.73586e-05
9.77547e-05
9.80959e-05
9.83819e-05
9.86125e-05
9.87875e-05
9.89069e-05
9.89706e-05
9.89786e-05
9.89307e-05
9.88272e-05
9.8608e-05
9.83333e-05
9.80033e-05
9.7618e-05
9.71778e-05
9.66828e-05
9.61334e-05
9.55299e-05
9.48726e-05
9.41619e-05
9.33983e-05
9.25821e-05
9.17138e-05
9.07939e-05
8.9823e-05
8.88017e-05
8.77304e-05
8.66099e-05
8.54408e-05
8.42237e-05
8.29594e-05
8.16487e-05
8.02922e-05
7.88907e-05
7.74451e-05
7.59563e-05
7.4425e-05
7.28521e-05
7.12387e-05
6.95855e-05
6.78936e-05
6.6164e-05
6.43976e-05
6.25955e-05
6.07587e-05
5.88883e-05
5.69854e-05
5.5051e-05
5.30863e-05
5.10925e-05
4.90706e-05
4.70219e-05
4.49476e-05
4.28487e-05
4.07267e-05
3.85826e-05
3.64177e-05
3.42333e-05
3.20306e-05
2.98109e-05
2.75755e-05
2.53257e-05
2.30627e-05
2.0788e-05
1.85026e-05
1.62081e-05
1.39057e-05
1.15968e-05
9.28255e-06
6.96444e-06
4.64376e-06
2.32184e-06
6.03443e-18
0
-4.47048e-06
-8.93532e-06
-1.33918e-05
-1.7837e-05
-2.22683e-05
-2.66829e-05
-3.1078e-05
-3.54509e-05
-3.9799e-05
-4.41194e-05
-4.84096e-05
-5.26669e-05
-5.68886e-05
-6.10721e-05
-6.52148e-05
-6.93142e-05
-7.33677e-05
-7.73728e-05
-8.13271e-05
-8.52281e-05
-8.90734e-05
-9.28605e-05
-9.65873e-05
-0.000100251
-0.00010385
-0.000107382
-0.000110845
-0.000114236
-0.000117553
-0.000120795
-0.000123959
-0.000127043
-0.000130046
-0.000132965
-0.0001358
-0.000138547
-0.000141206
-0.000143775
-0.000146251
-0.000148635
-0.000150923
-0.000153116
-0.000155211
-0.000157207
-0.000159102
-0.000160897
-0.000162589
-0.000164178
-0.000165662
-0.000167041
-0.000168314
-0.00016948
-0.000170538
-0.000171488
-0.000172328
-0.00017306
-0.000173681
-0.000174192
-0.000174592
-0.000174882
-0.00017506
-0.000175127
-0.000175083
-0.000174927
-0.000174547
-0.000174057
-0.000173456
-0.000172744
-0.000171923
-0.000170992
-0.000169953
-0.000168805
-0.00016755
-0.000166187
-0.000164719
-0.000163146
-0.000161468
-0.000159687
-0.000157804
-0.00015582
-0.000153736
-0.000151554
-0.000149274
-0.000146898
-0.000144428
-0.000141865
-0.00013921
-0.000136465
-0.000133632
-0.000130712
-0.000127707
-0.00012462
-0.000121451
-0.000118203
-0.000114877
-0.000111476
-0.000108002
-0.000104456
-0.000100841
-9.71593e-05
-9.34127e-05
-8.96034e-05
-8.57339e-05
-8.18064e-05
-7.78233e-05
-7.37869e-05
-6.96997e-05
-6.5564e-05
-6.13825e-05
-5.71575e-05
-5.28916e-05
-4.85874e-05
-4.42473e-05
-3.98741e-05
-3.54703e-05
-3.10386e-05
-2.65815e-05
-2.21019e-05
-1.76022e-05
-1.30853e-05
-8.5538e-06
-4.01042e-06
5.42108e-07
5.10108e-06
9.66378e-06
1.42275e-05
1.87894e-05
2.3347e-05
2.78908e-05
3.24247e-05
3.69461e-05
4.14522e-05
4.59403e-05
5.04077e-05
5.48518e-05
5.92699e-05
6.36594e-05
6.80176e-05
7.2342e-05
7.66299e-05
8.08789e-05
8.50863e-05
8.92497e-05
9.33666e-05
9.74344e-05
0.000101451
0.000105414
0.00010932
0.000113168
0.000116955
0.000120679
0.000124338
0.00012793
0.000131451
0.000134901
0.000138278
0.000141578
0.000144801
0.000147944
0.000151006
0.000153984
0.000156877
0.000159683
0.0001624
0.000165028
0.000167563
0.000170006
0.000172354
0.000174605
0.000176759
0.000178814
0.00018077
0.000182624
0.000184376
0.000186024
0.000187569
0.000189008
0.000190341
0.000191567
0.000192685
0.000193696
0.000194597
0.000195389
0.000196071
0.000196642
0.000197103
0.000197453
0.000197692
0.000197819
0.000197835
0.000197739
0.000197532
0.000197094
0.000196545
0.000195885
0.000195115
0.000194235
0.000193246
0.000192148
0.000190941
0.000189628
0.000188207
0.000186681
0.000185049
0.000183314
0.000181475
0.000179535
0.000177493
0.000175352
0.000173112
0.000170776
0.000168343
0.000165816
0.000163196
0.000160485
0.000157684
0.000154794
0.000151818
0.000148758
0.000145614
0.000142389
0.000139085
0.000135703
0.000132246
0.000128715
0.000125113
0.000121442
0.000117703
0.0001139
0.000110034
0.000106107
0.000102121
9.80803e-05
9.39854e-05
8.98393e-05
8.56442e-05
8.14027e-05
7.71172e-05
7.27901e-05
6.8424e-05
6.40214e-05
5.95848e-05
5.51168e-05
5.06199e-05
4.60968e-05
4.15501e-05
3.69823e-05
3.23961e-05
2.77942e-05
2.31791e-05
1.85536e-05
1.39202e-05
9.28175e-06
4.64079e-06
1.20652e-17
0
-6.70004e-06
-1.33916e-05
-2.00706e-05
-2.67328e-05
-3.33741e-05
-3.99904e-05
-4.65775e-05
-5.31314e-05
-5.96479e-05
-6.61231e-05
-7.2553e-05
-7.89334e-05
-8.52606e-05
-9.15305e-05
-9.77394e-05
-0.000103883
-0.000109958
-0.000115961
-0.000121887
-0.000127734
-0.000133497
-0.000139173
-0.000144758
-0.00015025
-0.000155644
-0.000160937
-0.000166126
-0.000171208
-0.00017618
-0.000181038
-0.00018578
-0.000190403
-0.000194903
-0.000199279
-0.000203527
-0.000207644
-0.000211629
-0.000215479
-0.000219191
-0.000222763
-0.000226193
-0.000229479
-0.000232618
-0.00023561
-0.000238451
-0.000241141
-0.000243677
-0.000246058
-0.000248282
-0.000250349
-0.000252257
-0.000254004
-0.000255589
-0.000257013
-0.000258273
-0.000259369
-0.0002603
-0.000261066
-0.000261666
-0.000262099
-0.000262367
-0.000262467
-0.0002624
-0.000262167
-0.000261598
-0.000260863
-0.000259962
-0.000258896
-0.000257665
-0.00025627
-0.000254712
-0.000252992
-0.00025111
-0.000249068
-0.000246868
-0.00024451
-0.000241995
-0.000239326
-0.000236504
-0.00023353
-0.000230407
-0.000227136
-0.000223719
-0.000220159
-0.000216456
-0.000212614
-0.000208635
-0.000204522
-0.000200275
-0.000195899
-0.000191396
-0.000186769
-0.000182019
-0.000177151
-0.000172167
-0.00016707
-0.000161862
-0.000156548
-0.000151131
-0.000145613
-0.000139997
-0.000134288
-0.000128489
-0.000122602
-0.000116633
-0.000110583
-0.000104457
-9.82592e-05
-9.19921e-05
-8.566e-05
-7.92665e-05
-7.28155e-05
-6.63109e-05
-5.97566e-05
-5.31565e-05
-4.65144e-05
-3.98344e-05
-3.31206e-05
-2.63767e-05
-1.9607e-05
-1.28155e-05
-6.00616e-06
8.16913e-07
7.64964e-06
1.44879e-05
2.13277e-05
2.81649e-05
3.49955e-05
4.18055e-05
4.86007e-05
5.53771e-05
6.21305e-05
6.8857e-05
7.55525e-05
8.2213e-05
8.88346e-05
9.54133e-05
0.000101945
0.000108426
0.000114853
0.000121221
0.000127527
0.000133766
0.000139937
0.000146033
0.000152053
0.000157992
0.000163847
0.000169614
0.00017529
0.000180871
0.000186355
0.000191737
0.000197016
0.000202186
0.000207247
0.000212193
0.000217023
0.000221734
0.000226322
0.000230786
0.000235122
0.000239327
0.0002434
0.000247338
0.000251138
0.000254799
0.000258317
0.000261692
0.00026492
0.000268
0.000270931
0.00027371
0.000276335
0.000278806
0.000281121
0.000283277
0.000285275
0.000287113
0.000288789
0.000290303
0.000291654
0.00029284
0.000293862
0.000294719
0.00029541
0.000295934
0.000296292
0.000296482
0.000296506
0.000296363
0.000296052
0.000295396
0.000294573
0.000293584
0.00029243
0.000291111
0.000289628
0.000287982
0.000286174
0.000284205
0.000282076
0.000279789
0.000277344
0.000274742
0.000271987
0.000269078
0.000266019
0.000262809
0.000259453
0.00025595
0.000252305
0.000248517
0.000244591
0.000240527
0.000236329
0.000231998
0.000227538
0.000222951
0.000218239
0.000213406
0.000208453
0.000203385
0.000198204
0.000192912
0.000187514
0.000182011
0.000176408
0.000170708
0.000164913
0.000159028
0.000153055
0.000146998
0.000140861
0.000134647
0.000128359
0.000122002
0.00011558
0.000109094
0.000102551
9.59522e-05
8.93028e-05
8.26064e-05
7.58667e-05
6.90877e-05
6.22732e-05
5.54273e-05
4.85537e-05
4.16565e-05
3.47397e-05
2.78072e-05
2.0863e-05
1.3911e-05
6.95539e-06
1.80887e-17
0
-8.92394e-06
-1.78366e-05
-2.67325e-05
-3.56061e-05
-4.44518e-05
-5.32641e-05
-6.20376e-05
-7.07669e-05
-7.94464e-05
-8.80709e-05
-9.66349e-05
-0.000105133
-0.00011356
-0.000121912
-0.000130181
-0.000138364
-0.000146456
-0.000154451
-0.000162344
-0.000170132
-0.000177807
-0.000185367
-0.000192807
-0.000200121
-0.000207305
-0.000214355
-0.000221267
-0.000228036
-0.000234658
-0.000241129
-0.000247445
-0.000253602
-0.000259596
-0.000265424
-0.000271082
-0.000276566
-0.000281874
-0.000287001
-0.000291945
-0.000296703
-0.000301271
-0.000305648
-0.000309829
-0.000313813
-0.000317598
-0.00032118
-0.000324558
-0.000327729
-0.000330692
-0.000333445
-0.000335985
-0.000338312
-0.000340424
-0.00034232
-0.000343998
-0.000345458
-0.000346698
-0.000347718
-0.000348517
-0.000349095
-0.000349451
-0.000349584
-0.000349496
-0.000349185
-0.000348427
-0.000347448
-0.000346248
-0.000344828
-0.000343188
-0.00034133
-0.000339255
-0.000336963
-0.000334457
-0.000331738
-0.000328806
-0.000325665
-0.000322316
-0.000318761
-0.000315002
-0.000311042
-0.000306882
-0.000302525
-0.000297974
-0.000293231
-0.0002883
-0.000283183
-0.000277883
-0.000272404
-0.000266748
-0.000260919
-0.000254922
-0.000248758
-0.000242432
-0.000235948
-0.000229309
-0.00022252
-0.000215584
-0.000208506
-0.00020129
-0.00019394
-0.000186461
-0.000178857
-0.000171132
-0.000163292
-0.000155341
-0.000147283
-0.000139124
-0.000130869
-0.000122521
-0.000114087
-0.000105572
-9.69793e-05
-8.83156e-05
-7.95857e-05
-7.07947e-05
-6.19479e-05
-5.30507e-05
-4.41082e-05
-3.51259e-05
-2.61091e-05
-1.70632e-05
-7.99361e-06
1.09427e-06
1.0195e-05
1.93032e-05
2.84133e-05
3.752e-05
4.66178e-05
5.56883e-05
6.47391e-05
7.37647e-05
8.27598e-05
9.1719e-05
0.000100637
0.000109508
0.000118328
0.00012709
0.00013579
0.000144423
0.000152982
0.000161464
0.000169863
0.000178174
0.000186392
0.000194513
0.00020253
0.000210441
0.000218239
0.00022592
0.00023348
0.000240914
0.000248218
0.000255387
0.000262417
0.000269304
0.000276044
0.000282633
0.000289066
0.00029534
0.000301452
0.000307397
0.000313172
0.000318773
0.000324198
0.000329443
0.000334504
0.00033938
0.000344066
0.000348561
0.000352861
0.000356964
0.000360867
0.000364568
0.000368065
0.000371356
0.000374439
0.000377311
0.000379972
0.00038242
0.000384652
0.000386669
0.000388468
0.000390048
0.00039141
0.00039255
0.00039347
0.000394169
0.000394645
0.000394899
0.00039493
0.000394739
0.000394326
0.000393451
0.000392355
0.000391038
0.000389501
0.000387744
0.000385769
0.000383577
0.000381169
0.000378546
0.00037571
0.000372663
0.000369406
0.000365942
0.000362271
0.000358397
0.000354322
0.000350048
0.000345577
0.000340912
0.000336056
0.000331011
0.000325781
0.000320368
0.000314777
0.000309009
0.000303068
0.000296958
0.000290682
0.000284244
0.000277648
0.000270897
0.000263996
0.000256948
0.000249758
0.000242429
0.000234966
0.000227373
0.000219655
0.000211816
0.00020386
0.000195793
0.000187619
0.000179342
0.000170967
0.0001625
0.000153945
0.000145307
0.000136592
0.000127803
0.000118946
0.000110027
0.00010105
9.20208e-05
8.29444e-05
7.38259e-05
6.46707e-05
5.54841e-05
4.62713e-05
3.70376e-05
2.77883e-05
1.85287e-05
9.26418e-06
2.41011e-17
0
-1.11408e-05
-2.22675e-05
-3.33732e-05
-4.44511e-05
-5.54941e-05
-6.64956e-05
-7.74485e-05
-8.83462e-05
-9.91819e-05
-0.000109949
-0.00012064
-0.00013125
-0.00014177
-0.000152196
-0.00016252
-0.000172736
-0.000182837
-0.000192818
-0.000202673
-0.000212394
-0.000221977
-0.000231415
-0.000240702
-0.000249833
-0.000258802
-0.000267604
-0.000276232
-0.000284683
-0.000292949
-0.000301028
-0.000308913
-0.000316599
-0.000324082
-0.000331358
-0.000338421
-0.000345268
-0.000351894
-0.000358295
-0.000364467
-0.000370407
-0.00037611
-0.000381574
-0.000386794
-0.000391768
-0.000396492
-0.000400964
-0.000405181
-0.00040914
-0.000412839
-0.000416275
-0.000419447
-0.000422352
-0.000424989
-0.000427356
-0.000429451
-0.000431273
-0.000432821
-0.000434094
-0.000435092
-0.000435813
-0.000436257
-0.000436424
-0.000436313
-0.000435925
-0.000434979
-0.000433756
-0.000432258
-0.000430485
-0.000428438
-0.000426118
-0.000423527
-0.000420666
-0.000417538
-0.000414143
-0.000410483
-0.000406562
-0.000402381
-0.000397943
-0.00039325
-0.000388305
-0.000383112
-0.000377672
-0.000371991
-0.00036607
-0.000359913
-0.000353525
-0.000346908
-0.000340068
-0.000333007
-0.000325731
-0.000318243
-0.000310548
-0.00030265
-0.000294555
-0.000286267
-0.000277791
-0.000269133
-0.000260296
-0.000251288
-0.000242112
-0.000232775
-0.000223281
-0.000213638
-0.00020385
-0.000193923
-0.000183864
-0.000173678
-0.000163372
-0.000152951
-0.000142421
-0.00013179
-0.000121063
-0.000110247
-9.93486e-05
-8.83737e-05
-7.73292e-05
-6.62216e-05
-5.50576e-05
-4.38439e-05
-3.25871e-05
-2.1294e-05
-9.97131e-06
1.37421e-06
1.27358e-05
2.41066e-05
3.54799e-05
4.6849e-05
5.82069e-05
6.95307e-05
8.08299e-05
9.20977e-05
0.000103327
0.000114512
0.000125646
0.000136721
0.000147731
0.00015867
0.000169532
0.000180308
0.000190994
0.000201583
0.000212069
0.000222444
0.000232704
0.000242842
0.000252851
0.000262727
0.000272462
0.000282052
0.00029149
0.000300771
0.000309889
0.000318839
0.000327615
0.000336213
0.000344627
0.000352853
0.000360884
0.000368717
0.000376347
0.000383768
0.000390978
0.000397971
0.000404743
0.000411291
0.00041761
0.000423697
0.000429547
0.000435158
0.000440526
0.000445648
0.000450521
0.000455142
0.000459507
0.000463616
0.000467464
0.000471051
0.000474372
0.000477428
0.000480215
0.000482732
0.000484978
0.000486951
0.000488651
0.000490075
0.000491223
0.000492095
0.000492689
0.000493006
0.000493046
0.000492807
0.000492291
0.000491199
0.000489831
0.000488186
0.000486267
0.000484074
0.000481608
0.000478871
0.000475865
0.00047259
0.00046905
0.000465246
0.00046118
0.000456854
0.000452272
0.000447436
0.000442348
0.000437011
0.00043143
0.000425606
0.000419543
0.000413245
0.000406716
0.000399959
0.000392978
0.000385777
0.00037836
0.000370732
0.000362897
0.00035486
0.000346625
0.000338197
0.000329581
0.000320782
0.000311806
0.000302656
0.000293339
0.00028386
0.000274224
0.000264438
0.000254506
0.000244434
0.000234229
0.000223896
0.000213441
0.000202871
0.00019219
0.000181406
0.000170525
0.000159553
0.000148496
0.000137361
0.000126154
0.000114882
0.00010355
9.21666e-05
8.0737e-05
6.92681e-05
5.77665e-05
4.62389e-05
3.46918e-05
2.31318e-05
1.15657e-05
3.0099e-17
0
-1.33491e-05
-2.66814e-05
-3.99885e-05
-5.32622e-05
-6.64943e-05
-7.96765e-05
-9.28006e-05
-0.000105858
-0.000118842
-0.000131743
-0.000144554
-0.000157266
-0.000169872
-0.000182364
-0.000194735
-0.000206976
-0.00021908
-0.000231039
-0.000242847
-0.000254495
-0.000265977
-0.000277286
-0.000288414
-0.000299355
-0.000310102
-0.000320648
-0.000330987
-0.000341113
-0.000351018
-0.000360698
-0.000370146
-0.000379356
-0.000388322
-0.00039704
-0.000405503
-0.000413707
-0.000421647
-0.000429316
-0.000436712
-0.000443829
-0.000450663
-0.000457209
-0.000463464
-0.000469424
-0.000475085
-0.000480443
-0.000485496
-0.00049024
-0.000494672
-0.000498789
-0.000502589
-0.00050607
-0.00050923
-0.000512065
-0.000514576
-0.000516759
-0.000518614
-0.000520139
-0.000521335
-0.000522198
-0.00052273
-0.00052293
-0.000522797
-0.000522332
-0.000521199
-0.000519734
-0.000517938
-0.000515814
-0.000513361
-0.000510581
-0.000507476
-0.000504049
-0.000500299
-0.000496231
-0.000491846
-0.000487148
-0.000482138
-0.000476819
-0.000471196
-0.000465271
-0.000459048
-0.000452531
-0.000445723
-0.000438628
-0.000431251
-0.000423596
-0.000415668
-0.000407471
-0.000399011
-0.000390292
-0.00038132
-0.000372099
-0.000362636
-0.000352936
-0.000343005
-0.000332849
-0.000322474
-0.000311886
-0.000301091
-0.000290097
-0.000278908
-0.000267533
-0.000255978
-0.00024425
-0.000232356
-0.000220302
-0.000208097
-0.000195747
-0.00018326
-0.000170644
-0.000157905
-0.000145052
-0.000132092
-0.000119033
-0.000105882
-9.26483e-05
-7.93388e-05
-6.59617e-05
-5.25251e-05
-3.90368e-05
-2.5505e-05
-1.19378e-05
1.65676e-06
1.52706e-05
2.88955e-05
4.25234e-05
5.61461e-05
6.97555e-05
8.33241e-05
9.68631e-05
0.000110365
0.00012382
0.000137222
0.000150563
0.000163833
0.000177026
0.000190134
0.000203148
0.000216061
0.000228866
0.000241554
0.000254118
0.00026655
0.000278843
0.000290991
0.000302984
0.000314817
0.000326482
0.000337973
0.000349282
0.000360403
0.000371328
0.000382052
0.000392569
0.000402871
0.000412953
0.000422809
0.000432432
0.000441818
0.00045096
0.000459853
0.000468491
0.000476871
0.000484985
0.000492831
0.000500403
0.000507696
0.000514706
0.000521429
0.000527861
0.000533998
0.000539837
0.000545374
0.000550605
0.000555528
0.000560139
0.000564436
0.000568416
0.000572077
0.000575417
0.000578433
0.000581124
0.000583488
0.000585524
0.000587231
0.000588607
0.000589651
0.000590363
0.000590743
0.00059079
0.000590504
0.000589886
0.000588577
0.000586937
0.000584967
0.000582667
0.000580039
0.000577084
0.000573805
0.000570202
0.000566279
0.000562036
0.000557478
0.000552606
0.000547423
0.000541932
0.000536137
0.00053004
0.000523646
0.000516958
0.000509979
0.000502715
0.000495168
0.000487345
0.000479248
0.000470883
0.000462254
0.000453367
0.000444227
0.000434839
0.000425208
0.000415341
0.000405242
0.000394918
0.000384375
0.000373619
0.000362655
0.000351491
0.000340133
0.000328587
0.00031686
0.000304959
0.000292891
0.000280663
0.000268282
0.000255754
0.000243088
0.00023029
0.000217369
0.000204331
0.000191183
0.000177934
0.000164592
0.000151163
0.000137656
0.000124078
0.000110438
9.67424e-05
8.29999e-05
6.92182e-05
5.54053e-05
4.15691e-05
2.77175e-05
1.38585e-05
3.60785e-17
0
-1.55476e-05
-3.10755e-05
-4.65743e-05
-6.2034e-05
-7.74453e-05
-9.27984e-05
-0.000108084
-0.000123292
-0.000138414
-0.00015344
-0.00016836
-0.000183166
-0.000197849
-0.000212398
-0.000226806
-0.000241063
-0.00025516
-0.000269089
-0.000282841
-0.000296408
-0.000309781
-0.000322952
-0.000335913
-0.000348656
-0.000361173
-0.000373456
-0.000385497
-0.00039729
-0.000408827
-0.000420101
-0.000431105
-0.000441831
-0.000452275
-0.000462428
-0.000472285
-0.00048184
-0.000491087
-0.00050002
-0.000508634
-0.000516923
-0.000524882
-0.000532506
-0.000539791
-0.000546733
-0.000553326
-0.000559566
-0.000565451
-0.000570976
-0.000576138
-0.000580933
-0.00058536
-0.000589414
-0.000593093
-0.000596396
-0.000599319
-0.000601862
-0.000604023
-0.000605799
-0.000607191
-0.000608197
-0.000608816
-0.000609049
-0.000608894
-0.000608353
-0.000607032
-0.000605326
-0.000603235
-0.00060076
-0.000597903
-0.000594665
-0.000591049
-0.000587057
-0.00058269
-0.000577951
-0.000572844
-0.000567372
-0.000561536
-0.000555342
-0.000548793
-0.000541892
-0.000534644
-0.000527053
-0.000519123
-0.00051086
-0.000502268
-0.000493352
-0.000484118
-0.000474571
-0.000464718
-0.000454563
-0.000444112
-0.000433373
-0.000422352
-0.000411054
-0.000399487
-0.000387658
-0.000375574
-0.000363242
-0.00035067
-0.000337864
-0.000324833
-0.000311585
-0.000298126
-0.000284466
-0.000270613
-0.000256574
-0.000242359
-0.000227975
-0.000213431
-0.000198737
-0.0001839
-0.00016893
-0.000153835
-0.000138625
-0.000123309
-0.000107895
-9.23937e-05
-7.68134e-05
-6.11637e-05
-4.54539e-05
-2.96934e-05
-1.38917e-05
1.94196e-06
1.7798e-05
3.36669e-05
4.95393e-05
6.54057e-05
8.12567e-05
9.70599e-05
0.000112829
0.000128554
0.000144226
0.000159835
0.000175373
0.000190829
0.000206195
0.000221461
0.000236619
0.000251659
0.000266572
0.00028135
0.000295983
0.000310463
0.000324781
0.000338929
0.000352898
0.00036668
0.000380266
0.000393649
0.000406821
0.000419773
0.000432498
0.000444988
0.000457237
0.000469236
0.000480978
0.000492457
0.000503665
0.000514596
0.000525244
0.000535602
0.000545663
0.000555422
0.000564874
0.000574011
0.00058283
0.000591324
0.000599489
0.000607319
0.000614811
0.000621959
0.000628759
0.000635207
0.0006413
0.000647033
0.000652404
0.000657409
0.000662044
0.000666308
0.000670198
0.000673711
0.000676845
0.000679598
0.00068197
0.000683957
0.000685559
0.000686776
0.000687605
0.000688047
0.000688102
0.000687769
0.000687049
0.000685524
0.000683614
0.000681319
0.00067864
0.000675579
0.000672138
0.000668318
0.000664122
0.000659552
0.000654611
0.000649302
0.000643627
0.00063759
0.000631195
0.000624445
0.000617345
0.000609897
0.000602107
0.000593979
0.000585518
0.000576729
0.000567616
0.000558185
0.000548442
0.000538393
0.000528042
0.000517396
0.000506462
0.000495245
0.000483752
0.00047199
0.000459966
0.000447686
0.000435158
0.000422388
0.000409385
0.000396156
0.000382709
0.00036905
0.000355189
0.000341134
0.000326891
0.00031247
0.00029788
0.000283127
0.000268222
0.000253172
0.000237986
0.000222673
0.000207242
0.000191702
0.000176061
0.000160329
0.000144515
0.000128628
0.000112677
9.66708e-05
8.06192e-05
6.45311e-05
4.84159e-05
3.22829e-05
1.61411e-05
4.20362e-17
0
-1.77348e-05
-3.54472e-05
-5.31263e-05
-7.07609e-05
-8.83402e-05
-0.000105853
-0.000123289
-0.000140637
-0.000157886
-0.000175026
-0.000192045
-0.000208934
-0.000225682
-0.000242278
-0.000258712
-0.000274975
-0.000291056
-0.000306944
-0.000322631
-0.000338106
-0.000353361
-0.000368385
-0.000383169
-0.000397704
-0.000411982
-0.000425993
-0.000439728
-0.00045318
-0.00046634
-0.0004792
-0.000491751
-0.000503987
-0.0005159
-0.000527481
-0.000538725
-0.000549624
-0.000560172
-0.000570361
-0.000580187
-0.000589642
-0.00059872
-0.000607417
-0.000615727
-0.000623645
-0.000631165
-0.000638284
-0.000644997
-0.000651299
-0.000657187
-0.000662657
-0.000667705
-0.00067233
-0.000676527
-0.000680294
-0.000683628
-0.000686529
-0.000688993
-0.00069102
-0.000692607
-0.000693754
-0.000694461
-0.000694726
-0.000694549
-0.000693931
-0.000692425
-0.000690479
-0.000688093
-0.00068527
-0.000682011
-0.000678318
-0.000674193
-0.000669638
-0.000664657
-0.000659252
-0.000653426
-0.000647183
-0.000640527
-0.000633461
-0.00062599
-0.000618118
-0.00060985
-0.000601191
-0.000592146
-0.00058272
-0.000572919
-0.000562749
-0.000552216
-0.000541326
-0.000530085
-0.000518502
-0.000506581
-0.000494331
-0.000481759
-0.000468872
-0.000455678
-0.000442184
-0.0004284
-0.000414333
-0.000399992
-0.000385384
-0.00037052
-0.000355407
-0.000340055
-0.000324474
-0.000308671
-0.000292657
-0.000276442
-0.000260034
-0.000243445
-0.000226683
-0.000209759
-0.000192682
-0.000175464
-0.000158114
-0.000140643
-0.00012306
-0.000105378
-8.76057e-05
-6.97542e-05
-5.18342e-05
-3.38563e-05
-1.58314e-05
2.22983e-06
2.03166e-05
3.84182e-05
5.65237e-05
7.46223e-05
9.27032e-05
0.00011073
0.000128717
0.000146655
0.000164531
0.000182337
0.00020006
0.000217691
0.000235219
0.000252633
0.000269923
0.000287079
0.00030409
0.000320947
0.000337639
0.000354156
0.000370488
0.000386627
0.000402561
0.000418282
0.000433779
0.000449045
0.00046407
0.000478844
0.000493359
0.000507607
0.000521578
0.000535265
0.00054866
0.000561753
0.000574539
0.000587008
0.000599153
0.000610968
0.000622445
0.000633577
0.000644358
0.000654781
0.00066484
0.000674529
0.000683843
0.000692775
0.00070132
0.000709473
0.00071723
0.000724586
0.000731535
0.000738075
0.000744202
0.00074991
0.000755198
0.000760062
0.000764498
0.000768506
0.000772081
0.000775221
0.000777926
0.000780193
0.00078202
0.000783408
0.000784354
0.000784858
0.00078492
0.00078454
0.000783718
0.00078198
0.000779801
0.000777183
0.000774127
0.000770635
0.000766709
0.000762352
0.000757565
0.000752352
0.000746716
0.000740659
0.000734186
0.0007273
0.000720005
0.000712305
0.000704205
0.00069571
0.000686824
0.000677552
0.000667901
0.000657874
0.00064748
0.000636722
0.000625608
0.000614144
0.000602337
0.000590194
0.000577721
0.000564926
0.000551816
0.000538399
0.000524683
0.000510675
0.000496384
0.000481818
0.000466986
0.000451895
0.000436555
0.000420975
0.000405164
0.000389131
0.000372884
0.000356435
0.000339791
0.000322963
0.00030596
0.000288792
0.00027147
0.000254003
0.000236401
0.000218674
0.000200833
0.000182887
0.000164848
0.000146726
0.00012853
0.000110272
9.19621e-05
7.36105e-05
5.5228e-05
3.6825e-05
1.84121e-05
4.79683e-17
0
-1.99094e-05
-3.97936e-05
-5.96404e-05
-7.94374e-05
-9.91722e-05
-0.000118833
-0.000138406
-0.000157881
-0.000177245
-0.000196487
-0.000215593
-0.000234553
-0.000253354
-0.000271985
-0.000290435
-0.000308691
-0.000326744
-0.00034458
-0.000362191
-0.000379564
-0.000396688
-0.000413554
-0.000430151
-0.000446469
-0.000462497
-0.000478226
-0.000493646
-0.000508747
-0.000523521
-0.000537957
-0.000552048
-0.000565784
-0.000579157
-0.000592158
-0.000604781
-0.000617016
-0.000628857
-0.000640296
-0.000651326
-0.00066194
-0.000672132
-0.000681895
-0.000691224
-0.000700112
-0.000708555
-0.000716546
-0.000724082
-0.000731156
-0.000737766
-0.000743907
-0.000749574
-0.000754766
-0.000759477
-0.000763706
-0.00076745
-0.000770706
-0.000773472
-0.000775747
-0.000777529
-0.000778816
-0.000779609
-0.000779907
-0.000779709
-0.000779015
-0.000777323
-0.000775138
-0.00077246
-0.00076929
-0.000765631
-0.000761485
-0.000756854
-0.000751741
-0.000746149
-0.000740081
-0.00073354
-0.000726532
-0.000719059
-0.000711127
-0.00070274
-0.000693902
-0.00068462
-0.000674899
-0.000664744
-0.000654163
-0.00064316
-0.000631742
-0.000619917
-0.000607692
-0.000595073
-0.000582069
-0.000568686
-0.000554934
-0.00054082
-0.000526352
-0.00051154
-0.000496392
-0.000480918
-0.000465126
-0.000449025
-0.000432627
-0.000415939
-0.000398974
-0.000381739
-0.000364246
-0.000346506
-0.000328528
-0.000310324
-0.000291905
-0.000273281
-0.000254463
-0.000235464
-0.000216293
-0.000196964
-0.000177486
-0.000157872
-0.000138134
-0.000118283
-9.83314e-05
-7.82909e-05
-5.81734e-05
-3.7991e-05
-1.77557e-05
2.52038e-06
2.28251e-05
4.31464e-05
6.34721e-05
8.37901e-05
0.000104088
0.000124325
0.000144519
0.000164656
0.000184725
0.000204713
0.00022461
0.000244403
0.00026408
0.000283629
0.00030304
0.000322299
0.000341397
0.00036032
0.000379059
0.000397601
0.000415937
0.000434054
0.000451942
0.00046959
0.000486989
0.000504126
0.000520993
0.000537579
0.000553874
0.000569869
0.000585554
0.000600919
0.000615956
0.000630655
0.000645008
0.000659006
0.000672641
0.000685904
0.000698788
0.000711286
0.000723388
0.00073509
0.000746382
0.000757259
0.000767715
0.000777742
0.000787335
0.000796488
0.000805196
0.000813453
0.000821255
0.000828597
0.000835474
0.000841883
0.000847819
0.000853279
0.000858259
0.000862758
0.000866771
0.000870297
0.000873333
0.000875878
0.000877929
0.000879486
0.000880548
0.000881115
0.000881184
0.000880757
0.000879834
0.000877882
0.000875436
0.000872497
0.000869066
0.000865146
0.000860739
0.000855847
0.000850473
0.000844621
0.000838293
0.000831493
0.000824226
0.000816496
0.000808306
0.000799662
0.000790568
0.000781031
0.000771055
0.000760646
0.000749811
0.000738555
0.000726885
0.000714808
0.000702331
0.000689462
0.000676207
0.000662574
0.000648571
0.000634207
0.000619489
0.000604427
0.000589028
0.000573303
0.000557259
0.000540907
0.000524255
0.000507314
0.000490093
0.000472602
0.000454852
0.000436852
0.000418614
0.000400146
0.000381462
0.00036257
0.000343482
0.000324209
0.000304762
0.000285153
0.000265392
0.000245491
0.000225462
0.000205316
0.000185065
0.00016472
0.000144293
0.000123796
0.00010324
8.26378e-05
6.20009e-05
4.13411e-05
2.06701e-05
5.38713e-17
0
-2.20699e-05
-4.4112e-05
-6.61126e-05
-8.80579e-05
-0.000109934
-0.000131728
-0.000153426
-0.000175015
-0.00019648
-0.000217809
-0.000238989
-0.000260006
-0.000280848
-0.000301501
-0.000321953
-0.00034219
-0.000362202
-0.000381974
-0.000401495
-0.000420754
-0.000439737
-0.000458433
-0.000476831
-0.000494919
-0.000512687
-0.000530123
-0.000547216
-0.000563956
-0.000580332
-0.000596335
-0.000611955
-0.000627182
-0.000642006
-0.000656418
-0.00067041
-0.000683974
-0.000697099
-0.000709779
-0.000722006
-0.000733772
-0.00074507
-0.000755893
-0.000766234
-0.000776087
-0.000785445
-0.000794304
-0.000802657
-0.000810499
-0.000817826
-0.000824633
-0.000830915
-0.00083667
-0.000841893
-0.00084658
-0.00085073
-0.000854339
-0.000857405
-0.000859927
-0.000861902
-0.000863329
-0.000864208
-0.000864538
-0.000864318
-0.000863548
-0.000861673
-0.000859251
-0.000856281
-0.000852768