# vtk DataFile Version 3.0
Scalar Field Data
ASCII
DATASET STRUCTURED_POINTS
DIMENSIONS 256 256 1
ORIGIN 0 0 0
SPACING 0.00392157 0.00392157 1
POINT_DATA 65536
SCALARS scalars double
LOOKUP_TABLE default
0
0
0
0
0
0
0
0
0
0
0
0
0
0
0
0
0
0
0
0
0
0
0
0
0
0
0
0
0
0
0
0
0
0
0
0
0
0
0
0
0
0
0
0
0
0
0
0
0
0
0
0
0
0
0
0
0
0
0
0
0
0
0
0
0
0
0
0
0
0
0
0
0
0
0
0
0
0
0
0
0
0
0
0
0
0
0
0
0
0
0
0
0
0
0
0
0
0
0
0
0
0
0
0
0
0
0
0
0
0
0
0
0
0
0
0
0
0
0
0
0
0
0
0
0
0
0
0
0
0
0
0
0
0
0
0
0
0
0
0
0
0
0
0
0
0
0
0
0
0
0
0
0
0
0
0
0
0
0
0
0
0
0
0
0
0
0
0
0
0
0
0
0
0
0
0
0
0
0
0
0
0
0
0
0
0
0
0
0
0
0
0
0
0
0
0
0
0
0
0
0
0
0
0
0
0
0
0
0
0
0
0
0
0
0
0
0
0
0
0
0
0
0
0
0
0
0
0
0
0
0
0
0
0
0
0
0
0
0
0
0
0
0
0
0
0
0
0
0
0
0
0
0
0
0
0
0
-1.99473e-06
-3.98695e-06
-5.97542e-06
-7.9589e-06
-9.93616e-06
-1.1906e-05
-1.38671e-05
-1.58184e-05
-1.77586e-05
-1.96865e-05
-2.16009e-05
-2.35006e-05
-2.53845e-05
-2.72514e-05
-2.91001e-05
-3.09296e-05
-3.27386e-05
-3.4526e-05
-3.62908e-05
-3.80318e-05
-3.97481e-05
-4.14384e-05
-4.31019e-05
-4.47374e-05
-4.6344e-05
-4.79206e-05
-4.94663e-05
-5.09802e-05
-5.24613e-05
-5.39086e-05
-5.53214e-05
-5.66987e-05
-5.80397e-05
-5.93436e-05
-6.06095e-05
-6.18367e-05
-6.30245e-05
-6.4172e-05
-6.52786e-05
-6.63436e-05
-6.73664e-05
-6.83463e-05
-6.92827e-05
-7.01751e-05
-7.10229e-05
-7.18255e-05
-7.25825e-05
-7.32933e-05
-7.39577e-05
-7.45751e-05
-7.51452e-05
-7.56675e-05
-7.60937e-05
-7.64715e-05
-7.68009e-05
-7.70816e-05
-7.73134e-05
-7.74961e-05
-7.76298e-05
-7.77142e-05
-7.77493e-05
-7.77351e-05
-7.76715e-05
-7.75587e-05
-7.73967e-05
-7.71855e-05
-7.69252e-05
-7.66161e-05
-7.62583e-05
-7.5852e-05
-7.53974e-05
-7.48948e-05
-7.43446e-05
-7.37469e-05
-7.31023e-05
-7.2411e-05
-7.16734e-05
-7.08901e-05
-7.00614e-05
-6.91878e-05
-6.82699e-05
-6.73082e-05
-6.63033e-05
-6.52558e-05
-6.41663e-05
-6.30354e-05
-6.18638e-05
-6.06523e-05
-5.94014e-05
-5.8112e-05
-5.67849e-05
-5.54208e-05
-5.40205e-05
-5.25849e-05
-5.11148e-05
-4.96111e-05
-4.80746e-05
-4.65064e-05
-4.49073e-05
-4.32783e-05
-4.16204e-05
-3.99344e-05
-3.82216e-05
-3.64555e-05
-3.46646e-05
-3.28499e-05
-3.10125e-05
-2.91534e-05
-2.72739e-05
-2.53749e-05
-2.34576e-05
-2.15232e-05
-1.95728e-05
-1.76076e-05
-1.56288e-05
-1.36375e-05
-1.16348e-05
-9.62215e-06
-7.60055e-06
-5.57125e-06
-3.53548e-06
-1.49442e-06
5.50694e-07
2.59865e-06
4.64824e-06
6.69823e-06
8.74741e-06
1.07946e-05
1.28384e-05
1.48779e-05
1.69116e-05
1.89385e-05
2.09573e-05
2.29668e-05
2.49658e-05
2.69531e-05
2.89275e-05
3.0888e-05
3.28332e-05
3.47621e-05
3.66735e-05
3.85663e-05
4.04393e-05
4.22914e-05
4.41216e-05
4.59287e-05
4.77116e-05
4.94694e-05
5.1201e-05
5.29052e-05
5.45812e-05
5.6228e-05
5.78445e-05
5.94297e-05
6.09491e-05
6.24354e-05
6.38877e-05
6.53053e-05
6.66873e-05
6.80328e-05
6.93411e-05
7.06113e-05
7.18428e-05
7.30347e-05
7.41864e-05
7.52972e-05
7.63664e-05
7.73934e-05
7.83776e-05
7.93183e-05
8.02151e-05
8.10674e-05
8.18746e-05
8.26364e-05
8.33521e-05
8.40215e-05
8.46441e-05
8.52196e-05
8.57475e-05
8.62276e-05
8.66596e-05
8.70432e-05
8.73782e-05
8.76644e-05
8.79016e-05
8.80897e-05
8.82285e-05
8.83179e-05
8.8358e-05
8.83486e-05
8.82898e-05
8.81816e-05
8.8024e-05
8.78171e-05
8.75611e-05
8.7256e-05
8.69022e-05
8.64996e-05
8.60487e-05
8.55496e-05
8.50026e-05
8.44081e-05
8.37663e-05
8.30777e-05
8.23426e-05
8.15111e-05
8.0634e-05
7.97118e-05
7.87452e-05
7.77347e-05
7.66808e-05
7.55841e-05
7.44453e-05
7.32651e-05
7.20441e-05
7.0783e-05
6.94825e-05
6.81435e-05
6.67666e-05
6.53527e-05
6.39026e-05
6.24171e-05
6.08971e-05
5.93434e-05
5.77569e-05
5.61386e-05
5.44895e-05
5.28103e-05
5.11022e-05
4.9366e-05
4.76029e-05
4.58137e-05
4.39996e-05
4.21615e-05
4.03006e-05
3.84179e-05
3.65145e-05
3.45915e-05
3.26499e-05
3.0691e-05
2.87157e-05
2.67254e-05
2.4721e-05
2.27038e-05
2.06748e-05
1.86354e-05
1.65866e-05
1.45295e-05
1.24655e-05
1.03956e-05
8.32105e-06
6.24303e-06
4.16273e-06
2.08132e-06
6.03443e-18
0
-3.98693e-06
-7.96883e-06
-1.19432e-05
-1.59077e-05
-1.98597e-05
-2.37968e-05
-2.77166e-05
-3.16167e-05
-3.54946e-05
-3.93479e-05
-4.31743e-05
-4.69713e-05
-5.07367e-05
-5.44681e-05
-5.81632e-05
-6.18197e-05
-6.54354e-05
-6.9008e-05
-7.25353e-05
-7.60152e-05
-7.94455e-05
-8.28241e-05
-8.61489e-05
-8.94178e-05
-9.26289e-05
-9.57801e-05
-9.88696e-05
-0.000101895
-0.000104856
-0.000107749
-0.000110572
-0.000113325
-0.000116005
-0.000118611
-0.000121142
-0.000123595
-0.000125969
-0.000128262
-0.000130474
-0.000132603
-0.000134647
-0.000136605
-0.000138477
-0.000140261
-0.000141955
-0.000143559
-0.000145072
-0.000146493
-0.000147821
-0.000149055
-0.000150194
-0.000151238
-0.00015209
-0.000152845
-0.000153504
-0.000154065
-0.000154528
-0.000154893
-0.00015516
-0.000155329
-0.000155399
-0.000155371
-0.000155244
-0.000155018
-0.000154694
-0.000154272
-0.000153752
-0.000153134
-0.000152419
-0.000151607
-0.000150698
-0.000149693
-0.000148594
-0.000147399
-0.000146111
-0.000144729
-0.000143255
-0.000141689
-0.000140032
-0.000138286
-0.000136452
-0.00013453
-0.000132521
-0.000130427
-0.00012825
-0.000125989
-0.000123648
-0.000121226
-0.000118726
-0.000116149
-0.000113496
-0.000110769
-0.000107971
-0.000105101
-0.000102163
-9.91573e-05
-9.60863e-05
-9.29519e-05
-8.97557e-05
-8.64997e-05
-8.31859e-05
-7.98162e-05
-7.63925e-05
-7.28627e-05
-6.92831e-05
-6.5656e-05
-6.19834e-05
-5.82677e-05
-5.45108e-05
-5.07152e-05
-4.68831e-05
-4.30167e-05
-3.91184e-05
-3.51905e-05
-3.12353e-05
-2.72552e-05
-2.32525e-05
-1.92296e-05
-1.51889e-05
-1.11329e-05
-7.06388e-06
-2.98434e-06
1.10332e-06
5.19666e-06
9.29326e-06
1.33907e-05
1.74864e-05
2.15782e-05
2.56634e-05
2.97397e-05
3.38046e-05
3.78558e-05
4.18908e-05
4.59073e-05
4.99027e-05
5.38749e-05
5.78213e-05
6.17397e-05
6.56277e-05
6.94831e-05
7.33035e-05
7.70866e-05
8.08302e-05
8.45322e-05
8.81902e-05
9.18021e-05
9.53658e-05
9.88791e-05
0.00010234
0.000105746
0.000109096
0.000112388
0.000115619
0.000118787
0.000121824
0.000124795
0.000127698
0.000130531
0.000133293
0.000135982
0.000138597
0.000141136
0.000143598
0.00014598
0.000148282
0.000150502
0.000152639
0.000154692
0.000156659
0.000158539
0.000160332
0.000162035
0.000163648
0.000165171
0.000166602
0.000167939
0.000169184
0.000170334
0.000171389
0.000172349
0.000173212
0.000173979
0.000174649
0.000175221
0.000175695
0.00017607
0.000176348
0.000176527
0.000176607
0.000176588
0.00017647
0.000176254
0.000175939
0.000175525
0.000175014
0.000174404
0.000173697
0.000172892
0.000171991
0.000170993
0.0001699
0.000168712
0.000167429
0.000166052
0.000164583
0.000162921
0.000161168
0.000159325
0.000157393
0.000155373
0.000153266
0.000151074
0.000148798
0.000146439
0.000143999
0.000141478
0.000138879
0.000136202
0.00013345
0.000130624
0.000127726
0.000124757
0.000121718
0.000118613
0.000115442
0.000112208
0.000108911
0.000105555
0.000102141
9.86707e-05
9.51465e-05
9.15704e-05
8.79444e-05
8.42706e-05
8.05511e-05
7.67881e-05
7.29836e-05
6.91399e-05
6.52592e-05
6.13438e-05
5.73958e-05
5.34175e-05
4.94113e-05
4.53793e-05
4.1324e-05
3.72476e-05
3.31525e-05
2.9041e-05
2.49155e-05
2.07783e-05
1.66318e-05
1.24783e-05
8.32028e-06
4.16005e-06
1.20652e-17
0
-5.97532e-06
-1.19431e-05
-1.78996e-05
-2.38413e-05
-2.97642e-05
-3.56649e-05
-4.15396e-05
-4.73848e-05
-5.31967e-05
-5.89718e-05
-6.47064e-05
-7.03972e-05
-7.60405e-05
-8.16328e-05
-8.71708e-05
-9.26509e-05
-9.80698e-05
-0.000103424
-0.000108711
-0.000113926
-0.000119067
-0.000124131
-0.000129114
-0.000134013
-0.000138825
-0.000143548
-0.000148178
-0.000152713
-0.00015715
-0.000161486
-0.000165718
-0.000169843
-0.00017386
-0.000177766
-0.000181558
-0.000185234
-0.000188792
-0.00019223
-0.000195545
-0.000198735
-0.000201799
-0.000204734
-0.000207539
-0.000210212
-0.000212752
-0.000215156
-0.000217423
-0.000219553
-0.000221543
-0.000223392
-0.0002251
-0.000226665
-0.000227941
-0.000229073
-0.000230059
-0.0002309
-0.000231594
-0.000232142
-0.000232542
-0.000232795
-0.0002329
-0.000232857
-0.000232667
-0.000232329
-0.000231843
-0.00023121
-0.000230431
-0.000229505
-0.000228433
-0.000227216
-0.000225854
-0.000224348
-0.0002227
-0.00022091
-0.000218978
-0.000216907
-0.000214698
-0.000212351
-0.000209869
-0.000207252
-0.000204502
-0.000201621
-0.000198611
-0.000195473
-0.000192209
-0.000188821
-0.000185312
-0.000181682
-0.000177935
-0.000174073
-0.000170097
-0.000166011
-0.000161816
-0.000157515
-0.000153112
-0.000148607
-0.000144005
-0.000139307
-0.000134516
-0.000129637
-0.00012467
-0.00011962
-0.000114489
-0.000109198
-0.000103833
-9.83972e-05
-9.2893e-05
-8.7324e-05
-8.16935e-05
-7.60049e-05
-7.02615e-05
-6.44668e-05
-5.86243e-05
-5.27373e-05
-4.68095e-05
-4.08443e-05
-3.48452e-05
-2.8816e-05
-2.27601e-05
-1.66812e-05
-1.05828e-05
-4.4686e-06
1.65774e-06
7.79259e-06
1.39323e-05
2.00733e-05
2.62118e-05
3.23442e-05
3.84669e-05
4.45762e-05
5.06685e-05
5.67401e-05
6.27876e-05
6.88071e-05
7.47953e-05
8.07485e-05
8.66632e-05
9.25358e-05
9.8363e-05
0.000104141
0.000109867
0.000115537
0.000121148
0.000126696
0.000132178
0.000137591
0.000142932
0.000148198
0.000153385
0.00015849
0.000163511
0.000168444
0.000173286
0.000178035
0.000182586
0.000187038
0.000191389
0.000195636
0.000199775
0.000203806
0.000207725
0.00021153
0.000215219
0.000218789
0.000222239
0.000225567
0.00022877
0.000231846
0.000234794
0.000237612
0.000240299
0.000242852
0.00024527
0.000247552
0.000249696
0.000251701
0.000253566
0.00025529
0.000256871
0.000258309
0.000259603
0.000260752
0.000261756
0.000262613
0.000263323
0.000263887
0.000264302
0.00026457
0.00026469
0.000264662
0.000264486
0.000264161
0.000263689
0.00026307
0.000262303
0.000261389
0.000260329
0.000259123
0.000257772
0.000256277
0.000254638
0.000252857
0.000250934
0.000248872
0.000246669
0.000244178
0.000241551
0.000238788
0.000235893
0.000232865
0.000229708
0.000226423
0.000223012
0.000219476
0.000215818
0.000212041
0.000208145
0.000204134
0.000200009
0.000195773
0.000191429
0.000186979
0.000182426
0.000177771
0.000173019
0.000168171
0.000163231
0.000158201
0.000153084
0.000147883
0.000142601
0.000137241
0.000131807
0.000126301
0.000120726
0.000115086
0.000109384
0.000103624
9.78073e-05
9.1939e-05
8.60219e-05
8.00595e-05
7.40551e-05
6.80122e-05
6.19343e-05
5.58248e-05
4.96873e-05
4.35252e-05
3.73421e-05
3.11414e-05
2.49268e-05
1.87019e-05
1.247e-05
6.23488e-06
1.80887e-17
0
-7.95864e-06
-1.59073e-05
-2.38409e-05
-3.17546e-05
-3.96436e-05
-4.75028e-05
-5.53275e-05
-6.31127e-05
-7.08537e-05
-7.85456e-05
-8.61838e-05
-9.37634e-05
-0.00010128
-0.000108728
-0.000116104
-0.000123404
-0.000130621
-0.000137753
-0.000144794
-0.00015174
-0.000158588
-0.000165332
-0.000171969
-0.000178494
-0.000184904
-0.000191195
-0.000197362
-0.000203402
-0.000209311
-0.000215086
-0.000220722
-0.000226217
-0.000231568
-0.00023677
-0.000241821
-0.000246717
-0.000251456
-0.000256034
-0.000260449
-0.000264699
-0.000268779
-0.000272689
-0.000276425
-0.000279985
-0.000283367
-0.00028657
-0.00028959
-0.000292426
-0.000295076
-0.00029754
-0.000299814
-0.000301898
-0.000303598
-0.000305106
-0.00030642
-0.000307539
-0.000308464
-0.000309193
-0.000309726
-0.000310063
-0.000310203
-0.000310146
-0.000309892
-0.000309442
-0.000308795
-0.000307952
-0.000306914
-0.00030568
-0.000304252
-0.000302631
-0.000300817
-0.000298812
-0.000296616
-0.000294232
-0.000291659
-0.000288901
-0.000285958
-0.000282832
-0.000279526
-0.00027604
-0.000272378
-0.000268541
-0.000264531
-0.000260352
-0.000256004
-0.000251492
-0.000246817
-0.000241983
-0.000236992
-0.000231848
-0.000226552
-0.00022111
-0.000215523
-0.000209794
-0.000203929
-0.000197929
-0.000191799
-0.000185542
-0.000179161
-0.000172662
-0.000166046
-0.00015932
-0.000152485
-0.000145439
-0.000138293
-0.000131053
-0.000123721
-0.000116304
-0.000108804
-0.000101228
-9.35778e-05
-8.58596e-05
-7.80777e-05
-7.02367e-05
-6.23412e-05
-5.4396e-05
-4.64057e-05
-3.83751e-05
-3.03091e-05
-2.22124e-05
-1.40897e-05
-5.94607e-06
2.21379e-06
1.0385e-05
1.85627e-05
2.6742e-05
3.49181e-05
4.3086e-05
5.1241e-05
5.93782e-05
6.74927e-05
7.55797e-05
8.36345e-05
9.16521e-05
9.96279e-05
0.000107557
0.000115435
0.000123257
0.000131018
0.000138714
0.000146341
0.000153893
0.000161366
0.000168756
0.000176058
0.000183268
0.000190382
0.000197395
0.000204304
0.000211104
0.000217791
0.000224361
0.000230811
0.000237136
0.000243198
0.000249128
0.000254923
0.000260579
0.000266092
0.000271461
0.000276681
0.000281749
0.000286662
0.000291418
0.000296013
0.000300444
0.00030471
0.000308808
0.000312735
0.000316488
0.000320066
0.000323466
0.000326687
0.000329726
0.000332582
0.000335253
0.000337737
0.000340033
0.000342139
0.000344054
0.000345778
0.000347308
0.000348645
0.000349787
0.000350733
0.000351483
0.000352037
0.000352393
0.000352553
0.000352515
0.000352281
0.000351849
0.00035122
0.000350394
0.000349373
0.000348155
0.000346743
0.000345137
0.000343338
0.000341346
0.000339164
0.000336791
0.000334231
0.000331483
0.00032855
0.000325232
0.000321732
0.000318053
0.000314196
0.000310164
0.000305958
0.000301583
0.000297039
0.00029233
0.000287458
0.000282426
0.000277237
0.000271894
0.0002664
0.000260759
0.000254973
0.000249045
0.00024298
0.000236781
0.000230451
0.000223994
0.000217414
0.000210714
0.000203898
0.000196971
0.000189936
0.000182797
0.000175559
0.000168225
0.0001608
0.000153288
0.000145693
0.00013802
0.000130274
0.000122457
0.000114576
0.000106635
9.86371e-05
9.05883e-05
8.24929e-05
7.43554e-05
6.61805e-05
5.7973e-05
4.97374e-05
4.14785e-05
3.32011e-05
2.49098e-05
1.66093e-05
8.30449e-06
2.41011e-17
0
-9.93564e-06
-1.98588e-05
-2.97632e-05
-3.96428e-05
-4.94914e-05
-5.9303e-05
-6.90713e-05
-7.87905e-05
-8.84544e-05
-9.80571e-05
-0.000107593
-0.000117055
-0.000126439
-0.000135738
-0.000144946
-0.000154058
-0.000163069
-0.000171972
-0.000180762
-0.000189434
-0.000197982
-0.000206402
-0.000214687
-0.000222834
-0.000230836
-0.000238689
-0.000246388
-0.000253928
-0.000261306
-0.000268515
-0.000275552
-0.000282412
-0.000289091
-0.000295586
-0.000301891
-0.000308003
-0.000313919
-0.000319635
-0.000325147
-0.000330452
-0.000335546
-0.000340427
-0.000345091
-0.000349535
-0.000353758
-0.000357755
-0.000361526
-0.000365067
-0.000368375
-0.00037145
-0.00037429
-0.000376892
-0.000379014
-0.000380896
-0.000382536
-0.000383934
-0.000385088
-0.000385998
-0.000386664
-0.000387084
-0.000387258
-0.000387187
-0.000386871
-0.000386308
-0.000385501
-0.000384449
-0.000383152
-0.000381612
-0.000379829
-0.000377805
-0.000375541
-0.000373037
-0.000370296
-0.000367319
-0.000364108
-0.000360664
-0.00035699
-0.000353088
-0.00034896
-0.000344608
-0.000340036
-0.000335245
-0.00033024
-0.000325022
-0.000319595
-0.000313961
-0.000308125
-0.00030209
-0.000295859
-0.000289437
-0.000282826
-0.000276031
-0.000269056
-0.000261905
-0.000254582
-0.000247092
-0.000239438
-0.000231627
-0.000223661
-0.000215547
-0.000207288
-0.000198891
-0.000190359
-0.000181562
-0.000172641
-0.000163602
-0.000154449
-0.000145189
-0.000135826
-0.000126367
-0.000116817
-0.000107181
-9.74663e-05
-8.76774e-05
-7.78205e-05
-6.79015e-05
-5.79263e-05
-4.79008e-05
-3.78309e-05
-2.77228e-05
-1.75823e-05
-7.41561e-06
2.77134e-06
1.29724e-05
2.31816e-05
3.33929e-05
4.36e-05
5.37971e-05
6.39779e-05
7.41365e-05
8.42668e-05
9.43628e-05
0.000104419
0.000114428
0.000124385
0.000134284
0.000144119
0.000153884
0.000163574
0.000173182
0.000182702
0.00019213
0.00020146
0.000210685
0.000219801
0.000228803
0.000237684
0.000246439
0.000255064
0.000263553
0.000271902
0.000280104
0.000288156
0.000296052
0.00030362
0.000311023
0.000318257
0.000325319
0.000332202
0.000338904
0.000345421
0.000351748
0.000357881
0.000363818
0.000369555
0.000375088
0.000380413
0.000385529
0.000390431
0.000395116
0.000399583
0.000403828
0.000407849
0.000411643
0.000415208
0.000418542
0.000421643
0.00042451
0.000427139
0.00042953
0.000431682
0.000433592
0.000435261
0.000436686
0.000437867
0.000438804
0.000439495
0.00043994
0.00044014
0.000440093
0.000439799
0.00043926
0.000438475
0.000437444
0.000436169
0.000434649
0.000432886
0.000430881
0.000428634
0.000426148
0.000423423
0.000420461
0.000417264
0.000413834
0.000410172
0.00040603
0.000401661
0.000397067
0.000392252
0.000387218
0.000381968
0.000376505
0.000370833
0.000364954
0.000358871
0.000352589
0.000346111
0.000339441
0.000332582
0.000325539
0.000318316
0.000310916
0.000303344
0.000295605
0.000287702
0.000279641
0.000271426
0.000263062
0.000254553
0.000245905
0.000237122
0.00022821
0.000219173
0.000210017
0.000200748
0.000191369
0.000181888
0.000172309
0.000162637
0.000152879
0.00014304
0.000133126
0.000123141
0.000113093
0.000102987
9.28275e-05
8.26218e-05
7.23752e-05
6.20937e-05
5.1783e-05
4.14492e-05
3.10981e-05
2.07356e-05
1.03676e-05
3.0099e-17
0
-1.19051e-05
-2.37951e-05
-3.56628e-05
-4.75007e-05
-5.93015e-05
-7.10579e-05
-8.27626e-05
-9.44082e-05
-0.000105988
-0.000117494
-0.00012892
-0.000140258
-0.000151501
-0.000162643
-0.000173677
-0.000184595
-0.000195392
-0.00020606
-0.000216592
-0.000226983
-0.000237226
-0.000247315
-0.000257242
-0.000267003
-0.000276592
-0.000286001
-0.000295227
-0.000304262
-0.000313101
-0.000321739
-0.000330171
-0.000338391
-0.000346394
-0.000354176
-0.000361731
-0.000369055
-0.000376144
-0.000382992
-0.000389597
-0.000395953
-0.000402057
-0.000407905
-0.000413493
-0.000418819
-0.000423878
-0.000428668
-0.000433186
-0.000437428
-0.000441393
-0.000445078
-0.00044848
-0.000451597
-0.00045414
-0.000456395
-0.00045836
-0.000460035
-0.000461418
-0.000462508
-0.000463306
-0.000463809
-0.000464018
-0.000463933
-0.000463553
-0.000462879
-0.000461912
-0.000460651
-0.000459097
-0.000457252
-0.000455116
-0.00045269
-0.000449977
-0.000446977
-0.000443692
-0.000440125
-0.000436277
-0.000432151
-0.000427748
-0.000423072
-0.000418126
-0.000412912
-0.000407433
-0.000401693
-0.000395695
-0.000389443
-0.000382939
-0.000376189
-0.000369197
-0.000361965
-0.000354499
-0.000346803
-0.000338882
-0.00033074
-0.000322382
-0.000313813
-0.000305039
-0.000296064
-0.000286893
-0.000277533
-0.000267989
-0.000258266
-0.00024837
-0.000238308
-0.000228084
-0.000217543
-0.000206854
-0.000196023
-0.000185056
-0.00017396
-0.000162742
-0.000151407
-0.000139964
-0.000128419
-0.000116778
-0.000105048
-9.32374e-05
-8.13521e-05
-6.93995e-05
-5.73866e-05
-4.53206e-05
-3.32088e-05
-2.10582e-05
-8.87608e-06
3.33022e-06
1.55535e-05
2.77865e-05
4.00218e-05
5.22524e-05
6.44708e-05
7.66697e-05
8.88421e-05
0.000100981
0.000113078
0.000125127
0.00013712
0.000149051
0.000160913
0.000172697
0.000184398
0.000196008
0.000207521
0.000218929
0.000230225
0.000241404
0.000252459
0.000263382
0.000274167
0.000284809
0.0002953
0.000305635
0.000315806
0.00032581
0.000335638
0.000345286
0.000354747
0.000363815
0.000372686
0.000381354
0.000389815
0.000398063
0.000406093
0.000413902
0.000421483
0.000428832
0.000435946
0.00044282
0.000449449
0.000455831
0.00046196
0.000467834
0.000473448
0.0004788
0.000483887
0.000488704
0.000493251
0.000497522
0.000501517
0.000505233
0.000508667
0.000511818
0.000514683
0.000517261
0.00051955
0.000521549
0.000523257
0.000524672
0.000525795
0.000526623
0.000527156
0.000527395
0.000527338
0.000526987
0.000526341
0.0005254
0.000524165
0.000522636
0.000520815
0.000518703
0.0005163
0.000513608
0.000510629
0.000507363
0.000503815
0.000499984
0.000495873
0.000491486
0.000486522
0.000481287
0.000475782
0.000470013
0.000463981
0.00045769
0.000451144
0.000444347
0.000437302
0.000430014
0.000422487
0.000414725
0.000406732
0.000398514
0.000390074
0.000381419
0.000372552
0.000363479
0.000354206
0.000344736
0.000335077
0.000325234
0.000315211
0.000305016
0.000294653
0.000284129
0.00027345
0.000262622
0.000251651
0.000240544
0.000229306
0.000217945
0.000206467
0.000194879
0.000183186
0.000171397
0.000159517
0.000147553
0.000135513
0.000123403
0.00011123
9.90006e-05
8.67228e-05
7.4403e-05
6.20485e-05
4.96661e-05
3.72629e-05
2.48462e-05
1.24228e-05
3.60785e-17
0
-1.38657e-05
-2.77139e-05
-4.1536e-05
-5.53235e-05
-6.90677e-05
-8.27602e-05
-9.63925e-05
-0.000109956
-0.000123443
-0.000136844
-0.000150151
-0.000163356
-0.000176451
-0.000189428
-0.000202279
-0.000214996
-0.00022757
-0.000239995
-0.000252262
-0.000264364
-0.000276294
-0.000288044
-0.000299607
-0.000310975
-0.000322143
-0.000333102
-0.000343846
-0.000354369
-0.000364664
-0.000374725
-0.000384545
-0.000394119
-0.00040344
-0.000412503
-0.000421303
-0.000429833
-0.000438089
-0.000446065
-0.000453757
-0.00046116
-0.000468269
-0.00047508
-0.000481589
-0.000487792
-0.000493684
-0.000499263
-0.000504525
-0.000509466
-0.000514083
-0.000518375
-0.000522337
-0.000525968
-0.000528929
-0.000531555
-0.000533844
-0.000535795
-0.000537405
-0.000538675
-0.000539604
-0.00054019
-0.000540433
-0.000540334
-0.000539892
-0.000539107
-0.00053798
-0.000536511
-0.000534701
-0.000532552
-0.000530064
-0.000527239
-0.000524078
-0.000520584
-0.000516759
-0.000512604
-0.000508122
-0.000503316
-0.000498188
-0.000492742
-0.000486981
-0.000480908
-0.000474527
-0.000467841
-0.000460855
-0.000453573
-0.000445999
-0.000438137
-0.000429992
-0.00042157
-0.000412874
-0.00040391
-0.000394684
-0.000385201
-0.000375467
-0.000365487
-0.000355267
-0.000344814
-0.000334133
-0.000323231
-0.000312115
-0.000300791
-0.000289265
-0.000277545
-0.000265638
-0.000253361
-0.000240911
-0.000228296
-0.000215523
-0.0002026
-0.000189534
-0.000176333
-0.000163005
-0.000149557
-0.000135999
-0.000122338
-0.000108582
-9.47392e-05
-8.08179e-05
-6.68265e-05
-5.27733e-05
-3.86666e-05
-2.45148e-05
-1.03264e-05
3.89029e-06
1.81267e-05
3.23744e-05
4.66249e-05
6.08698e-05
7.51005e-05
8.93087e-05
0.000103486
0.000117623
0.000131713
0.000145747
0.000159715
0.000173611
0.000187426
0.000201151
0.000214779
0.000228302
0.00024171
0.000254997
0.000268154
0.000281174
0.000294049
0.000306771
0.000319333
0.000331727
0.000343946
0.000355983
0.00036783
0.000379481
0.000390928
0.000402164
0.000413184
0.000423746
0.000434077
0.000444173
0.000454027
0.000463634
0.000472987
0.000482081
0.00049091
0.00049947
0.000507756
0.000515761
0.000523482
0.000530915
0.000538053
0.000544894
0.000551434
0.000557667
0.000563591
0.000569202
0.000574497
0.000579472
0.000584125
0.000588453
0.000592452
0.000596122
0.000599459
0.000602461
0.000605128
0.000607456
0.000609445
0.000611093
0.0006124
0.000613364
0.000613985
0.000614263
0.000614198
0.000613788
0.000613035
0.000611939
0.000610501
0.00060872
0.000606599
0.000604139
0.00060134
0.000598205
0.000594735
0.000590932
0.000586798
0.000582336
0.000577549
0.000572438
0.000566657
0.000560559
0.000554148
0.000547428
0.000540403
0.000533076
0.000525452
0.000517535
0.00050933
0.000500841
0.000492074
0.000483033
0.000473724
0.000464152
0.000454323
0.000444242
0.000433915
0.000423347
0.000412546
0.000401517
0.000390267
0.000378802
0.000367129
0.000355254
0.000343185
0.000330927
0.000318489
0.000305878
0.0002931
0.000280163
0.000267075
0.000253843
0.000240474
0.000226977
0.000213358
0.000199627
0.00018579
0.000171856
0.000157833
0.000143728
0.00012955
0.000115307
0.000101007
8.66578e-05
7.22683e-05
5.78464e-05
4.34004e-05
2.89385e-05
1.4469e-05
4.20362e-17
0
-1.58162e-05
-3.16125e-05
-4.73791e-05
-6.31061e-05
-7.87838e-05
-9.44025e-05
-0.000109952
-0.000125424
-0.000140808
-0.000156094
-0.000171273
-0.000186336
-0.000201274
-0.000216076
-0.000230734
-0.00024524
-0.000259583
-0.000273756
-0.000287749
-0.000301553
-0.000315161
-0.000328564
-0.000341753
-0.000354721
-0.00036746
-0.00037996
-0.000392216
-0.000404219
-0.000415963
-0.000427439
-0.00043864
-0.000449561
-0.000460193
-0.000470531
-0.000480568
-0.000490299
-0.000499716
-0.000508814
-0.000517588
-0.000526033
-0.000534142
-0.000541911
-0.000549335
-0.000556411
-0.000563132
-0.000569495
-0.000575497
-0.000581133
-0.0005864
-0.000591295
-0.000595814
-0.000599956
-0.000603334
-0.000606329
-0.00060894
-0.000611165
-0.000613002
-0.00061445
-0.000615509
-0.000616178
-0.000616455
-0.000616342
-0.000615837
-0.000614942
-0.000613656
-0.00061198
-0.000609916
-0.000607464
-0.000604626
-0.000601404
-0.000597798
-0.000593813
-0.000589449
-0.000584709
-0.000579596
-0.000574114
-0.000568265
-0.000562053
-0.000555481
-0.000548553
-0.000541274
-0.000533648
-0.000525679
-0.000517372
-0.000508732
-0.000499764
-0.000490474
-0.000480866
-0.000470947
-0.000460723
-0.000450199
-0.000439381
-0.000428277
-0.000416893
-0.000405236
-0.000393312
-0.000381128
-0.000368692
-0.000356012
-0.000343095
-0.000329948
-0.000316579
-0.000302996
-0.000288992
-0.000274791
-0.000260401
-0.000245831
-0.000231089
-0.000216185
-0.000201127
-0.000185923
-0.000170584
-0.000155119
-0.000139536
-0.000123844
-0.000108054
-9.21741e-05
-7.62143e-05
-6.0184e-05
-4.40927e-05
-2.79499e-05
-1.17654e-05
4.45139e-06
2.06907e-05
3.69428e-05
5.31982e-05
6.94471e-05
8.56799e-05
0.000101887
0.000118058
0.000134185
0.000150257
0.000166265
0.000182199
0.00019805
0.000213808
0.000229464
0.000245009
0.000260434
0.000275729
0.000290885
0.000305893
0.000320745
0.000335431
0.000349943
0.000364272
0.00037841
0.000392348
0.000406078
0.000419592
0.000432881
0.000445939
0.000458756
0.000471326
0.000483373
0.000495158
0.000506674
0.000517915
0.000528873
0.000539541
0.000549915
0.000559986
0.000569751
0.000579202
0.000588333
0.000597141
0.000605618
0.000613761
0.000621565
0.000629024
0.000636134
0.000642892
0.000649292
0.000655332
0.000661007
0.000666314
0.00067125
0.000675813
0.000679998
0.000683804
0.000687229
0.00069027
0.000692926
0.000695195
0.000697075
0.000698565
0.000699665
0.000700374
0.000700691
0.000700615
0.000700148
0.000699289
0.000698039
0.000696398
0.000694367
0.000691947
0.000689141
0.000685948
0.000682371
0.000678413
0.000674075
0.00066936
0.00066427
0.000658809
0.000652979
0.000646385
0.000639429
0.000632116
0.00062445
0.000616436
0.000608078
0.000599382
0.000590351
0.000580991
0.000571308
0.000561307
0.000550995
0.000540376
0.000529457
0.000518245
0.000506745
0.000494965
0.000482911
0.00047059
0.000458009
0.000445176
0.000432098
0.000418782
0.000405237
0.000391469
0.000377487
0.000363299
0.000348913
0.000334338
0.000319581
0.000304651
0.000289557
0.000274308
0.000258911
0.000243377
0.000227713
0.00021193
0.000196035
0.000180039
0.00016395
0.000147777
0.00013153
0.000115218
9.88501e-05
8.24361e-05
6.59851e-05
4.95066e-05
3.301e-05
1.65047e-05
4.79683e-17
0
-1.77555e-05
-3.54886e-05
-5.31883e-05
-7.08436e-05
-8.84436e-05
-0.000105977
-0.000123434
-0.000140802
-0.000158072
-0.000175233
-0.000192273
-0.000209183
-0.000225952
-0.000242569
-0.000259025
-0.000275309
-0.000291411
-0.000307321
-0.00032303
-0.000338527
-0.000353804
-0.00036885
-0.000383656
-0.000398214
-0.000412514
-0.000426548
-0.000440306
-0.000453781
-0.000466964
-0.000479847
-0.000492422
-0.000504681
-0.000516617
-0.000528223
-0.000539491
-0.000550414
-0.000560986
-0.0005712
-0.00058105
-0.000590529
-0.000599633
-0.000608354
-0.000616689
-0.000624631
-0.000632177
-0.00063932
-0.000646058
-0.000652385
-0.000658298
-0.000663792
-0.000668866
-0.000673515
-0.000677307
-0.000680669
-0.0006836
-0.000686098
-0.00068816
-0.000689786
-0.000690975
-0.000691725
-0.000692036
-0.000691909
-0.000691342
-0.000690337
-0.000688893
-0.000687012
-0.000684694
-0.000681942
-0.000678755
-0.000675137
-0.00067109
-0.000666615
-0.000661716
-0.000656395
-0.000650655
-0.000644501
-0.000637934
-0.00063096
-0.000623582
-0.000615805
-0.000607634
-0.000599072
-0.000590126
-0.0005808
-0.000571101
-0.000561033
-0.000550603
-0.000539817
-0.000528682
-0.000517203
-0.000505389
-0.000493245
-0.000480779
-0.000467999
-0.000454912
-0.000441526
-0.000427848
-0.000413888
-0.000399652
-0.000385151
-0.000370391
-0.000355383
-0.000340135
-0.000324414
-0.000308471
-0.000292317
-0.00027596
-0.00025941
-0.000242678
-0.000225774
-0.000208706
-0.000191486
-0.000174124
-0.00015663
-0.000139014
-0.000121288
-0.000103461
-8.55439e-05
-6.75479e-05
-4.94834e-05
-3.13611e-05
-1.31919e-05
5.01335e-06
2.32439e-05
4.1489e-05
5.97376e-05
7.7979e-05
9.62023e-05
0.000114397
0.000132551
0.000150655
0.000168698
0.000186669
0.000204557
0.000222351
0.000240042
0.000257618
0.000275069
0.000292385
0.000309555
0.00032657
0.000343419
0.000360091
0.000376578
0.00039287
0.000408956
0.000424827
0.000440474
0.000455888
0.000471059
0.000485978
0.000500636
0.000515025
0.000529137
0.000542661
0.000555891
0.000568819
0.000581438
0.000593739
0.000605716
0.000617361
0.000628668
0.000639629
0.000650239
0.00066049
0.000670378
0.000679895
0.000689036
0.000697796
0.00070617
0.000714152
0.000721738
0.000728923
0.000735703
0.000742074
0.000748032
0.000753573
0.000758695
0.000763394
0.000767667
0.000771511
0.000774925
0.000777906
0.000780453
0.000782563
0.000784237
0.000785471
0.000786267
0.000786622
0.000786538
0.000786013
0.000785048
0.000783645
0.000781802
0.000779522
0.000776806
0.000773655
0.00077007
0.000766055
0.000761611
0.000756741
0.000751448
0.000745734
0.000739603
0.000733058
0.000725654
0.000717845
0.000709636
0.00070103
0.000692033
0.00068265
0.000672887
0.000662748
0.000652241
0.00064137
0.000630143
0.000618566
0.000606645
0.000594387
0.000581799
0.000568889
0.000555664
0.000542132
0.0005283
0.000514177
0.00049977
0.000485088
0.000470139
0.000454932
0.000439476
0.00042378
0.000407852
0.000391702
0.000375339
0.000358772
0.000342011
0.000325066
0.000307947
0.000290662
0.000273223
0.000255639
0.000237919
0.000220076
0.000202118
0.000184055
0.000165899
0.00014766
0.000129347
0.000110972
9.25454e-05
7.40771e-05
5.55778e-05
3.70581e-05
1.85287e-05
5.38713e-17
0
-1.96822e-05
-3.93396e-05
-5.896e-05
-7.85312e-05
-9.8041e-05
-0.000117477
-0.000136828
-0.000156082
-0.000175226
-0.000194248
-0.000213138
-0.000231883
-0.000250471
-0.000268892
-0.000287133
-0.000305184
-0.000323033
-0.00034067
-0.000358083
-0.000375262
-0.000392196
-0.000408875
-0.000425288
-0.000441426
-0.000457277
-0.000472834
-0.000488085
-0.000503022
-0.000517636
-0.000531917
-0.000545856
-0.000559446
-0.000572677
-0.000585542
-0.000598033
-0.000610141
-0.00062186
-0.000633182
-0.000644101
-0.000654609
-0.0006647
-0.000674368
-0.000683607
-0.000692411
-0.000700775
-0.000708694
-0.000716162
-0.000723176
-0.00072973
-0.000735821
-0.000741445
-0.000746599
-0.000750802
-0.000754529
-0.000757778
-0.000760546
-0.000762832
-0.000764634
-0.000765952
-0.000766783
-0.000767128
-0.000766987
-0.000766358
-0.000765244
-0.000763643