# vtk DataFile Version 3.0
Scalar Field Data
ASCII
DATASET STRUCTURED_POINTS
DIMENSIONS 240 240 1
ORIGIN 0 0 0
SPACING 0.0041841 0.0041841 1
POINT_DATA 57600
SCALARS scalars double
LOOKUP_TABLE default
0
0
0
0
0
0
0
0
0
0
0
0
0
0
0
0
0
0
0
0
0
0
0
0
0
0
0
0
0
0
0
0
0
0
0
0
0
0
0
0
0
0
0
0
0
0
0
0
0
0
0
0
0
0
0
0
0
0
0
0
0
0
0
0
0
0
0
0
0
0
0
0
0
0
0
0
0
0
0
0
0
0
0
0
0
0
0
0
0
0
0
0
0
0
0
0
0
0
0
0
0
0
0
0
0
0
0
0
0
0
0
0
0
0
0
0
0
0
0
0
0
0
0
0
0
0
0
0
0
0
0
0
0
0
0
0
0
0
0
0
0
0
0
0
0
0
0
0
0
0
0
0
0
0
0
0
0
0
0
0
0
0
0
0
0
0
0
0
0
0
0
0
0
0
0
0
0
0
0
0
0
0
0
0
0
0
0
0
0
0
0
0
0
0
0
0
0
0
0
0
0
0
0
0
0
0
0
0
0
0
0
0
0
0
0
0
0
0
0
0
0
0
0
0
0
0
0
0
0
0
0
0
0
0
0
0
0
0
0
0
0.000333794
0.000667592
0.00100115
0.00133424
0.00166662
0.00199805
0.00232829
0.00265711
0.00298428
0.00330954
0.00363269
0.00395347
0.00427167
0.00458706
0.0048994
0.00520847
0.00551405
0.00581593
0.00611387
0.00640768
0.00669714
0.00698203
0.00726216
0.00753732
0.00780731
0.00807194
0.00833102
0.00858436
0.00883178
0.00907309
0.00930813
0.00953672
0.00975871
0.00997392
0.0101822
0.0103834
0.0105774
0.010764
0.0109431
0.0111146
0.0112783
0.0114342
0.011582
0.0117218
0.0118534
0.0119767
0.0120916
0.012198
0.0122959
0.0123852
0.0124658
0.0125376
0.0126007
0.0126549
0.0127002
0.0127367
0.0127642
0.0127827
0.0127922
0.0127928
0.0127928
0.0127935
0.0127853
0.0127681
0.0127419
0.0127067
0.0126626
0.0126096
0.0125477
0.012477
0.0123975
0.0123093
0.0122125
0.012107
0.0119931
0.0118707
0.01174
0.011601
0.0114539
0.0112987
0.0111356
0.0109646
0.010786
0.0105997
0.0104061
0.0102051
0.00999692
0.00978173
0.00955968
0.00933091
0.00909559
0.00885389
0.00860597
0.008352
0.00809218
0.00782667
0.00755567
0.00727937
0.00699796
0.00671164
0.00642062
0.00612508
0.00582525
0.00552134
0.00521355
0.0049021
0.00458721
0.00426911
0.00394801
0.00362414
0.00329773
0.00296901
0.0026382
0.00230554
0.00197127
0.0016356
0.0012988
0.000961073
0.000622674
0.000283837
-5.52024e-05
-0.000394046
-0.000732618
-0.00107068
-0.00140799
-0.00174432
-0.00207944
-0.0024131
-0.00274507
-0.00307512
-0.00340302
-0.00372854
-0.00405145
-0.00437152
-0.00468854
-0.00500227
-0.00531249
-0.005619
-0.00592157
-0.00621999
-0.00651405
-0.00680355
-0.00708827
-0.00736803
-0.00764262
-0.00791184
-0.00817552
-0.00843347
-0.00868549
-0.00893142
-0.00917108
-0.00940431
-0.00963093
-0.00985078
-0.0100637
-0.0102696
-0.0104682
-0.0106595
-0.0108433
-0.0110195
-0.011188
-0.0113485
-0.0115011
-0.0116456
-0.0117819
-0.01191
-0.0120296
-0.0121408
-0.0122434
-0.0123374
-0.0124228
-0.0124993
-0.0125671
-0.012626
-0.0126761
-0.0127172
-0.0127493
-0.0127725
-0.0127866
-0.0127918
-0.0127879
-0.0127842
-0.0127714
-0.0127497
-0.0127189
-0.0126792
-0.0126305
-0.0125728
-0.0125064
-0.012431
-0.0123469
-0.0122541
-0.0121526
-0.0120425
-0.0119239
-0.0117969
-0.0116615
-0.0115179
-0.0113661
-0.0112062
-0.0110385
-0.0108629
-0.0106796
-0.0104887
-0.0102904
-0.0100848
-0.00987196
-0.00965215
-0.00942547
-0.00919207
-0.00895212
-0.00870578
-0.00845323
-0.00819463
-0.00793016
-0.00766001
-0.00738435
-0.00710339
-0.0068173
-0.0065263
-0.00623057
-0.00593032
-0.00562576
-0.0053171
-0.00500454
-0.00468831
-0.00436861
-0.00404567
-0.00371971
-0.00339095
-0.00305963
-0.00272595
-0.00239017
-0.0020525
-0.00171318
-0.00137244
-0.00103051
-0.000687643
-0.000344059
0
0.000667595
0.0013352
0.00200233
0.00266851
0.00333327
0.00399613
0.00465662
0.00531427
0.0059686
0.00661914
0.00726543
0.00790701
0.00854341
0.00917418
0.00979886
0.010417
0.0110282
0.0116319
0.0122278
0.0128154
0.0133944
0.0139641
0.0145244
0.0150747
0.0156147
0.016144
0.0166621
0.0171688
0.0176636
0.0181463
0.0186164
0.0190735
0.0195175
0.0199479
0.0203645
0.0207669
0.0211549
0.0215281
0.0218863
0.0222293
0.0225568
0.0228685
0.0231642
0.0234437
0.0237069
0.0239535
0.0241833
0.0243961
0.0245919
0.0247705
0.0249317
0.0250754
0.0252015
0.0253099
0.0254006
0.0254735
0.0255285
0.0255655
0.0255846
0.0255858
0.0255858
0.0255873
0.0255708
0.0255363
0.0254838
0.0254135
0.0253253
0.0252193
0.0250955
0.0249541
0.0247951
0.0246188
0.0244251
0.0242142
0.0239863
0.0237415
0.0234801
0.0232021
0.0229079
0.0225975
0.0222712
0.0219293
0.021572
0.0211995
0.0208122
0.0204102
0.0199939
0.0195635
0.0191194
0.0186619
0.0181912
0.0177078
0.017212
0.016704
0.0161844
0.0156534
0.0151114
0.0145588
0.0139959
0.0134233
0.0128412
0.0122502
0.0116505
0.0110427
0.0104271
0.00980418
0.00917441
0.0085382
0.007896
0.00724826
0.00659544
0.00593799
0.00527637
0.00461106
0.0039425
0.00327118
0.00259756
0.00192211
0.00124531
0.000567636
-0.000110444
-0.000788133
-0.00146528
-0.0021414
-0.00281603
-0.00348869
-0.00415892
-0.00482624
-0.00549019
-0.00615029
-0.00680609
-0.00745713
-0.00810296
-0.0087431
-0.00937713
-0.0100046
-0.010625
-0.0112381
-0.0118432
-0.01244
-0.0130282
-0.0136072
-0.0141766
-0.0147361
-0.0152853
-0.0158238
-0.0163511
-0.016867
-0.0173711
-0.0178629
-0.0183422
-0.0188087
-0.0192619
-0.0197017
-0.0201275
-0.0205393
-0.0209366
-0.0213192
-0.0216868
-0.0220392
-0.022376
-0.0226972
-0.0230024
-0.0232914
-0.023564
-0.02382
-0.0240593
-0.0242817
-0.0244869
-0.024675
-0.0248456
-0.0249988
-0.0251344
-0.0252522
-0.0253523
-0.0254345
-0.0254988
-0.0255451
-0.0255734
-0.0255837
-0.025576
-0.0255685
-0.025543
-0.0254995
-0.0254379
-0.0253584
-0.025261
-0.0251458
-0.0250128
-0.0248622
-0.0246939
-0.0245083
-0.0243053
-0.0240851
-0.0238479
-0.0235938
-0.0233231
-0.0230358
-0.0227322
-0.0224125
-0.022077
-0.0217258
-0.0213592
-0.0209774
-0.0205808
-0.0201695
-0.0197439
-0.0193043
-0.0188509
-0.0183841
-0.0179042
-0.0174116
-0.0169065
-0.0163892
-0.0158603
-0.01532
-0.0147687
-0.0142068
-0.0136346
-0.0130526
-0.0124611
-0.0118606
-0.0112515
-0.0106342
-0.0100091
-0.00937659
-0.0087372
-0.00809132
-0.0074394
-0.00678189
-0.00611923
-0.00545189
-0.00478032
-0.00410498
-0.00342634
-0.00274486
-0.00206102
-0.00137528
-0.000688115
0
0.00100117
0.00200234
0.00300281
0.00400186
0.00499878
0.00599285
0.00698335
0.0079696
0.00895086
0.00992646
0.0108957
0.0118578
0.0128122
0.0137581
0.0146949
0.0156219
0.0165385
0.0174439
0.0183375
0.0192188
0.0200869
0.0209414
0.0217816
0.0226069
0.0234167
0.0242104
0.0249875
0.0257473
0.0264894
0.0272132
0.0279181
0.0286038
0.0292696
0.029915
0.0305397
0.0311432
0.031725
0.0322847
0.032822
0.0333363
0.0338274
0.0342948
0.0347383
0.0351575
0.0355522
0.0359219
0.0362666
0.0365858
0.0368794
0.0371472
0.0373889
0.0376045
0.0377936
0.0379562
0.0380922
0.0382015
0.038284
0.0383396
0.0383682
0.0383699
0.0383699
0.0383721
0.0383474
0.0382957
0.038217
0.0381115
0.0379792
0.0378202
0.0376346
0.0374225
0.0371842
0.0369196
0.0366291
0.0363129
0.0359711
0.0356041
0.035212
0.0347951
0.0343538
0.0338884
0.0333991
0.0328864
0.0323505
0.0317919
0.031211
0.0306082
0.0299838
0.0293384
0.0286724
0.0279863
0.0272805
0.0265555
0.0258119
0.0250502
0.0242709
0.0234745
0.0226617
0.021833
0.020989
0.0201302
0.0192573
0.0183709
0.0174716
0.0165601
0.0156369
0.0147028
0.0137584
0.0128043
0.0118412
0.0108698
0.0098908
0.00890486
0.00791267
0.00691492
0.00591232
0.00490557
0.00389537
0.00288244
0.00186748
0.000851201
-0.000165682
-0.00118198
-0.00219746
-0.00321141
-0.00422312
-0.00523188
-0.00623699
-0.00723773
-0.00823342
-0.00922335
-0.0102068
-0.0111832
-0.0121517
-0.0131117
-0.0140625
-0.0150035
-0.0159339
-0.0168532
-0.0177607
-0.0186558
-0.0195378
-0.020406
-0.02126
-0.0220991
-0.0229227
-0.0237302
-0.024521
-0.0252947
-0.0260506
-0.0267882
-0.027507
-0.0282065
-0.0288862
-0.0295457
-0.0301843
-0.0308018
-0.0313976
-0.0319714
-0.0325227
-0.0330511
-0.0335563
-0.0340379
-0.0344956
-0.034929
-0.0353379
-0.0357218
-0.0360807
-0.0364141
-0.036722
-0.037004
-0.0372599
-0.0374896
-0.0376929
-0.0378696
-0.0380197
-0.038143
-0.0382394
-0.0383089
-0.0383514
-0.0383668
-0.0383552
-0.038344
-0.0383057
-0.0382404
-0.0381481
-0.0380289
-0.0378829
-0.03771
-0.0375106
-0.0372846
-0.0370324
-0.0367539
-0.0364495
-0.0361193
-0.0357636
-0.0353825
-0.0349765
-0.0345457
-0.0340904
-0.033611
-0.0331078
-0.0325811
-0.0320313
-0.0314588
-0.030864
-0.0302472
-0.029609
-0.0289497
-0.0282698
-0.0275698
-0.0268501
-0.0261112
-0.0253537
-0.0245781
-0.0237849
-0.0229746
-0.0221478
-0.0213051
-0.0204471
-0.0195743
-0.0186873
-0.0177867
-0.0168733
-0.0159475
-0.01501
-0.0140616
-0.0131027
-0.0121341
-0.0111564
-0.0101704
-0.00917666
-0.00817589
-0.00716877
-0.006156
-0.00513828
-0.00411631
-0.00309079
-0.00206243
-0.00103193
0
0.00133428
0.00266856
0.00400191
0.00533336
0.00666196
0.00798678
0.00930684
0.0106212
0.011929
0.0132292
0.0145208
0.0158031
0.017075
0.0183357
0.0195842
0.0208196
0.0220411
0.0232478
0.0244387
0.0256132
0.0267702
0.027909
0.0290287
0.0301286
0.0312078
0.0322656
0.0333012
0.0343138
0.0353028
0.0362674
0.0372069
0.0381206
0.0390079
0.0398682
0.0407007
0.041505
0.0422804
0.0430263
0.0437423
0.0444277
0.0450822
0.0457052
0.0462962
0.046855
0.0473809
0.0478737
0.048333
0.0487584
0.0491498
0.0495066
0.0498288
0.050116
0.0503681
0.0505849
0.0507661
0.0509118
0.0510217
0.0510957
0.0511339
0.0511362
0.0511362
0.0511392
0.0511062
0.0510372
0.0509324
0.0507918
0.0506155
0.0504035
0.0501562
0.0498735
0.0495558
0.0492033
0.0488161
0.0483947
0.0479392
0.04745
0.0469274
0.0463719
0.0457837
0.0451634
0.0445114
0.043828
0.0431139
0.0423694
0.0415952
0.0407918
0.0399597
0.0390996
0.038212
0.0372975
0.0363569
0.0353908
0.0343998
0.0333846
0.032346
0.0312847
0.0302015
0.029097
0.0279722
0.0268277
0.0256644
0.0244831
0.0232846
0.0220697
0.0208394
0.0195945
0.0183358
0.0170643
0.0157808
0.0144862
0.0131815
0.0118675
0.0105452
0.00921552
0.00787934
0.00653763
0.00519134
0.00384139
0.00248874
0.00113434
-0.000220875
-0.00157531
-0.00292865
-0.00427995
-0.00562827
-0.00697265
-0.00831217
-0.00964587
-0.0109728
-0.0122921
-0.0136028
-0.014904
-0.0161947
-0.0174741
-0.0187413
-0.0199953
-0.0212354
-0.0224605
-0.02367
-0.0248628
-0.0260382
-0.0271954
-0.0283335
-0.0294518
-0.0305494
-0.0316255
-0.0326795
-0.0337106
-0.034718
-0.035701
-0.036659
-0.0375912
-0.0384971
-0.0393759
-0.0402271
-0.04105
-0.041844
-0.0426087
-0.0433434
-0.0440477
-0.0447209
-0.0453628
-0.0459727
-0.0465504
-0.0470952
-0.047607
-0.0480852
-0.0485296
-0.0489399
-0.0493157
-0.0496568
-0.0499629
-0.0502338
-0.0504694
-0.0506694
-0.0508338
-0.0509623
-0.0510549
-0.0511115
-0.0511321
-0.0511166
-0.0511017
-0.0510506
-0.0509636
-0.0508406
-0.0506817
-0.050487
-0.0502567
-0.0499909
-0.0496897
-0.0493535
-0.0489824
-0.0485767
-0.0481366
-0.0476625
-0.0471547
-0.0466135
-0.0460394
-0.0454326
-0.0447937
-0.0441231
-0.0434212
-0.0426885
-0.0419255
-0.0411327
-0.0403108
-0.0394602
-0.0385815
-0.0376754
-0.0367424
-0.0357833
-0.0347986
-0.0337891
-0.0327554
-0.0316983
-0.0306184
-0.0295165
-0.0283935
-0.0272499
-0.0260867
-0.0249046
-0.0237045
-0.0224871
-0.0212533
-0.020004
-0.0187399
-0.017462
-0.0161712
-0.0148682
-0.0135541
-0.0122298
-0.010896
-0.00955384
-0.00820412
-0.0068478
-0.00548582
-0.0041191
-0.0027486
-0.00137525
0
0.00166669
0.00333338
0.0049989
0.00666206
0.00832166
0.00997652
0.0116255
0.0132673
0.0149008
0.0165249
0.0181384
0.0197401
0.0213289
0.0229036
0.0244632
0.0260064
0.0275322
0.0290394
0.0305271
0.0319941
0.0334393
0.0348618
0.0362605
0.0376344
0.0389825
0.0403038
0.0415974
0.0428623
0.0440977
0.0453025
0.0464761
0.0476175
0.0487258
0.0498004
0.0508404
0.051845
0.0528135
0.0537453
0.0546396
0.0554958
0.0563133
0.0570915
0.0578298
0.0585277
0.0591847
0.0598003
0.060374
0.0609055
0.0613943
0.06184
0.0622425
0.0626013
0.0629162
0.0631869
0.0634134
0.0635953
0.0637326
0.0638251
0.0638728
0.0638757
0.0638757
0.0638794
0.0638381
0.063752
0.063621
0.0634454
0.0632251
0.0629604
0.0626514
0.0622983
0.0619014
0.061461
0.0609774
0.060451
0.059882
0.0592709
0.0586182
0.0579242
0.0571895
0.0564147
0.0556002
0.0547466
0.0538545
0.0529246
0.0519576
0.050954
0.0499146
0.0488402
0.0477314
0.0465892
0.0454142
0.0442074
0.0429695
0.0417014
0.0404041
0.0390784
0.0377253
0.0363457
0.0349406
0.033511
0.0320579
0.0305823
0.0290852
0.0275677
0.0260309
0.0244759
0.0229036
0.0213153
0.0197121
0.018095
0.0164652
0.0148239
0.0131722
0.0115112
0.00984218
0.00816622
0.00648453
0.00479828
0.00310866
0.00141684
-0.000275983
-0.00196783
-0.00365832
-0.00534626
-0.00703048
-0.00870978
-0.010383
-0.012049
-0.0137065
-0.0153545
-0.0169917
-0.018617
-0.0202293
-0.0218274
-0.0234102
-0.0249767
-0.0265257
-0.0280561
-0.0295668
-0.0310568
-0.032525
-0.0339705
-0.0353921
-0.036789
-0.03816
-0.0395042
-0.0408208
-0.0421087
-0.0433671
-0.044595
-0.0457916
-0.0469561
-0.0480877
-0.0491854
-0.0502486
-0.0512765
-0.0522684
-0.0532236
-0.0541413
-0.055021
-0.0558621
-0.0566638
-0.0574257
-0.0581472
-0.0588278
-0.0594671
-0.0600645
-0.0606196
-0.0611321
-0.0616015
-0.0620276
-0.06241
-0.0627484
-0.0630427
-0.0632925
-0.0634978
-0.0636583
-0.063774
-0.0638447
-0.0638705
-0.0638512
-0.0638325
-0.0637687
-0.06366
-0.0635063
-0.0633078
-0.0630646
-0.0627769
-0.0624448
-0.0620687
-0.0616487
-0.0611851
-0.0606783
-0.0601286
-0.0595364
-0.0589021
-0.0582261
-0.0575089
-0.056751
-0.0559529
-0.0551151
-0.0542383
-0.0533231
-0.05237
-0.0513798
-0.050353
-0.0492905
-0.048193
-0.0470611
-0.0458957
-0.0446977
-0.0434677
-0.0422066
-0.0409154
-0.0395949
-0.038246
-0.0368697
-0.0354668
-0.0340384
-0.0325854
-0.0311088
-0.0296097
-0.028089
-0.0265479
-0.0249873
-0.0234083
-0.0218121
-0.0201997
-0.0185722
-0.0169307
-0.0152764
-0.0136104
-0.0119338
-0.0102479
-0.00855369
-0.00685242
-0.00514523
-0.00343331
-0.00171784
0
0.00199816
0.00399634
0.0059931
0.00798703
0.00997669
0.0119607
0.0139375
0.0159059
0.0178643
0.0198114
0.0217458
0.0236661
0.0255708
0.0274587
0.0293284
0.0311785
0.0330078
0.0348148
0.0365983
0.0383571
0.0400898
0.0417951
0.043472
0.0451191
0.0467353
0.0483194
0.0498702
0.0513867
0.0528678
0.0543123
0.0557192
0.0570876
0.0584164
0.0597046
0.0609514
0.0621558
0.063317
0.0644341
0.0655063
0.0665328
0.0675129
0.0684458
0.069331
0.0701677
0.0709553
0.0716933
0.0723811
0.0730183
0.0736043
0.0741387
0.0746212
0.0750514
0.0754289
0.0757535
0.076025
0.0762431
0.0764077
0.0765187
0.0765759
0.0765793
0.0765793
0.0765837
0.0765343
0.076431
0.076274
0.0760634
0.0757992
0.0754818
0.0751114
0.0746881
0.0742123
0.0736843
0.0731045
0.0724733
0.0717912
0.0710585
0.070276
0.069444
0.0685632
0.0676342
0.0666577
0.0656344
0.0645649
0.0634501
0.0622907
0.0610875
0.0598414
0.0585533
0.057224
0.0558546
0.054446
0.0529991
0.051515
0.0499947
0.0484394
0.0468501
0.0452279
0.0435739
0.0418894
0.0401754
0.0384333
0.0366643
0.0348695
0.0330502
0.0312078
0.0293434
0.0274585
0.0255544
0.0236323
0.0216936
0.0197397
0.0177719
0.0157917
0.0138004
0.0117995
0.00979019
0.00777405
0.00575245
0.0037268
0.00169852
-0.000330963
-0.00235928
-0.00438597
-0.0064096
-0.00842876
-0.010442
-0.012448
-0.0144453
-0.0164325
-0.0184082
-0.020371
-0.0223195
-0.0242525
-0.0261684
-0.0280661
-0.0299441
-0.0318011
-0.0336358
-0.035447
-0.0372333
-0.0389936
-0.0407265
-0.0424309
-0.0441055
-0.0457492
-0.0473608
-0.0489391
-0.0504832
-0.0519918
-0.053464
-0.0548986
-0.0562947
-0.0576512
-0.0589673
-0.0602419
-0.0614743
-0.0626634
-0.0638086
-0.0649088
-0.0659635
-0.0669718
-0.067933
-0.0688464
-0.0697114
-0.0705274
-0.0712938
-0.07201
-0.0726755
-0.0732899
-0.0738527
-0.0743635
-0.074822
-0.0752277
-0.0755805
-0.0758801
-0.0761262
-0.0763187
-0.0764574
-0.0765422
-0.076573
-0.0765499
-0.0765275
-0.076451
-0.0763207
-0.0761364
-0.0758984
-0.0756068
-0.0752619
-0.0748637
-0.0744128
-0.0739092
-0.0733534
-0.0727458
-0.0720868
-0.0713768
-0.0706163
-0.0698058
-0.068946
-0.0680374
-0.0670805
-0.0660762
-0.065025
-0.0639277
-0.0627851
-0.0615979
-0.060367
-0.0590932
-0.0577773
-0.0564203
-0.0550232
-0.0535868
-0.0521122
-0.0506004
-0.0490524
-0.0474693
-0.0458521
-0.044202
-0.0425202
-0.0408077
-0.0390657
-0.0372955
-0.0354982
-0.0336751
-0.0318275
-0.0299565
-0.0280636
-0.0261499
-0.0242168
-0.0222656
-0.0202977
-0.0183144
-0.0163171
-0.0143071
-0.0122859
-0.0102548
-0.00821514
-0.00616845
-0.00411609
-0.00205946
0
0.00232847
0.00465696
0.0069838
0.00930733
0.0116259
0.0139378
0.0162415
0.0185352
0.0208174
0.0230864
0.0253405
0.0275782
0.0297978
0.0319977
0.0341765
0.0363325
0.0384641
0.0405698
0.0426481
0.0446976
0.0467167
0.048704
0.050658
0.0525774
0.0544607
0.0563067
0.0581139
0.0598811
0.0616069
0.0632902
0.0649297
0.0665243
0.0680727
0.0695739
0.0710268
0.0724303
0.0737834
0.0750852
0.0763346
0.0775308
0.0786729
0.0797601
0.0807915
0.0817665
0.0826844
0.0835444
0.0843459
0.0850884
0.0857713
0.0863941
0.0869563
0.0874576
0.0878975
0.0882758
0.0885922
0.0888464
0.0890382
0.0891675
0.0892342
0.0892382
0.0892382
0.0892433
0.0891856
0.0890653
0.0888823
0.0886368
0.088329
0.0879592
0.0875274
0.0870341
0.0864797
0.0858644
0.0851887
0.0844532
0.0836583
0.0828045
0.0818926
0.0809231
0.0798967
0.0788142
0.0776762
0.0764837
0.0752374
0.0739383
0.0725872
0.0711852
0.0697331
0.068232
0.0666831
0.0650873
0.0634458
0.0617597
0.0600303
0.0582588
0.0564463
0.0545943
0.0527039
0.0507766
0.0488136
0.0468163
0.0447862
0.0427247
0.0406333
0.0385133
0.0363663
0.0341938
0.0319973
0.0297784
0.0275385
0.0252794
0.0230025
0.0207095
0.018402
0.0160815
0.0137498
0.0114084
0.00905899
0.00670322
0.00434273
0.00197918
-0.000385773
-0.00274937
-0.00511107
-0.00746921
-0.00982213
-0.0121682
-0.0145058
-0.0168332
-0.0191489
-0.0214511
-0.0237384
-0.026009
-0.0282615
-0.0304941
-0.0327055
-0.0348939
-0.0370579
-0.0391959
-0.0413064
-0.0433881
-0.0454393
-0.0474586
-0.0494447
-0.0513962
-0.0533116
-0.0551896
-0.0570288
-0.0588281
-0.0605861
-0.0623016
-0.0639734
-0.0656002
-0.067181
-0.0687146
-0.0702
-0.071636
-0.0730218
-0.0743562
-0.0756383
-0.0768673
-0.0780423
-0.0791624
-0.0802268
-0.0812348
-0.0821857
-0.0830787
-0.0839133
-0.0846889
-0.0854049
-0.0860607
-0.086656
-0.0871902
-0.0876631
-0.0880742
-0.0884233
-0.0887101
-0.0889344
-0.089096
-0.0891948
-0.0892308
-0.0892039
-0.0891777
-0.0890886
-0.0889367
-0.0887219
-0.0884446
-0.0881048
-0.0877028
-0.0872388
-0.0867133
-0.0861265
-0.0854788
-0.0847707
-0.0840027
-0.0831754
-0.0822891
-0.0813447
-0.0803427
-0.0792839
-0.0781689
-0.0769985
-0.0757736
-0.0744949
-0.0731634
-0.0717799
-0.0703455
-0.0688611
-0.0673278
-0.0657465
-0.0641184
-0.0624446
-0.0607262
-0.0589645
-0.0571606
-0.0553158
-0.0534313
-0.0515085
-0.0495486
-0.047553
-0.0455231
-0.0434603
-0.0413659
-0.0392415
-0.0370884
-0.0349082
-0.0327023
-0.0304723
-0.0282197
-0.025946
-0.0236528
-0.0213417
-0.0190142
-0.016672
-0.0143166
-0.0119498
-0.00957304
-0.00718805
-0.00479644
-0.00239988
0
0.00265738
0.00531478
0.00797029
0.010622
0.0132681
0.0159066
0.0185357
0.0211534
0.0237579
0.0263474
0.0289199
0.0314737
0.0340068
0.0365175
0.039004
0.0414645
0.0438972
0.0463004
0.0486723
0.0510112
0.0533155
0.0555835
0.0578136
0.060004
0.0621534
0.0642601
0.0663225
0.0683393
0.070309
0.07223
0.0741011
0.0759209
0.0776881
0.0794013
0.0810594
0.0826612
0.0842054
0.085691
0.0871169
0.0884821
0.0897855
0.0910262
0.0922034
0.0933161
0.0943636
0.0953451
0.0962599
0.0971072
0.0978866
0.0985973
0.099239
0.0998111
0.100313
0.100745
0.101106
0.101396
0.101615
0.101763
0.101839
0.101843
0.101843
0.101849
0.101783
0.101646
0.101437
0.101157
0.100806
0.100383
0.0998907
0.0993278
0.098695
0.0979928
0.0972217
0.0963822
0.095475
0.0945007
0.0934599
0.0923534
0.091182
0.0899466
0.0886479
0.0872869
0.0858646
0.084382
0.0828401
0.0812399
0.0795828
0.0778697
0.0761019
0.0742807
0.0724073
0.0704831
0.0685094
0.0664877
0.0644192
0.0623055
0.0601482
0.0579486
0.0557083
0.053429
0.0511121
0.0487594
0.0463725
0.0439531
0.0415029
0.0390235
0.0365168
0.0339844
0.0314282
0.02885
0.0262515
0.0236346
0.0210011
0.0183529
0.0156918
0.0130197
0.0103384
0.00764993
0.00495602
0.00225863
-0.000440373
-0.00313783
-0.00583311
-0.00852433
-0.0112096
-0.013887
-0.0165548
-0.019211
-0.0218537
-0.0244812
-0.0270915
-0.0296829
-0.0322535
-0.0348015
-0.0373252
-0.0398227
-0.0422923
-0.0447323
-0.047141
-0.0495166
-0.0518576
-0.0541622
-0.0564288
-0.0586559
-0.0608418
-0.0629851
-0.0650842
-0.0671376
-0.0691439
-0.0711017
-0.0730096
-0.0748663
-0.0766703
-0.0784206
-0.0801157
-0.0817546
-0.0833361
-0.084859
-0.0863223
-0.0877249
-0.0890658
-0.0903441
-0.0915589
-0.0927093
-0.0937945
-0.0948137
-0.0957662
-0.0966513
-0.0974684
-0.0982168
-0.0988962
-0.0995059
-0.100046
-0.100515
-0.100913
-0.10124
-0.101496
-0.101681
-0.101794
-0.101835
-0.101804
-0.101774
-0.101673
-0.101499
-0.101254
-0.100937
-0.10055
-0.100091
-0.0995613
-0.0989615
-0.0982918
-0.0975527
-0.0967446
-0.0958681
-0.0949238
-0.0939124
-0.0928346
-0.091691
-0.0904826
-0.0892101
-0.0878744
-0.0864764
-0.0850171
-0.0834975
-0.0819187
-0.0802816
-0.0785875
-0.0768376
-0.0750329
-0.0731749
-0.0712646
-0.0693036
-0.067293
-0.0652343
-0.0631289
-0.0609782
-0.0587838
-0.0565471
-0.0542696
-0.051953
-0.0495988
-0.0472086
-0.0447841
-0.0423269
-0.0398387
-0.0373213
-0.0347763
-0.0322055
-0.0296107
-0.0269936
-0.024356
-0.0216998
-0.0190268
-0.0163388
-0.0136376
-0.0109252
-0.0082033
-0.0054739
-0.00273884
0
0.00298466
0.00596933
0.00895189
0.0119302
0.0149022
0.0178656
0.0208185
0.0237586
0.0266839
0.0295922
0.0324815
0.0353498
0.0381949
0.0410148
0.0438076
0.046571
0.0493033
0.0520025
0.0546665
0.0572935
0.0598816
0.0624288
0.0649335
0.0673938
0.0698078
0.0721739
0.0744904
0.0767556
0.0789677
0.0811254
0.0832269
0.0852708
0.0872556
0.0891798
0.0910421
0.0928411
0.0945756
0.0962441
0.0978456
0.0993789
0.100843
0.102236
0.103559
0.104808
0.105985
0.107087
0.108115
0.109066
0.109942
0.11074
0.111461
0.112103
0.112667
0.113152
0.113558
0.113883
0.114129
0.114295
0.114381
0.114386
0.114386
0.114392
0.114318
0.114164
0.113929
0.113615
0.11322
0.112746
0.112193
0.11156
0.11085
0.110061
0.109195
0.108252
0.107233
0.106139
0.10497
0.103727
0.102411
0.101024
0.099565
0.0980364
0.0964389
0.0947737
0.0930419
0.0912447
0.0893834
0.0874594
0.0854739
0.0834284
0.0813243
0.0791631
0.0769464
0.0746756
0.0723524
0.0699784
0.0675554
0.0650849
0.0625687
0.0600087
0.0574065
0.0547641
0.0520832
0.0493659
0.0466139
0.0438292
0.0410137
0.0381695
0.0352985
0.0324027
0.0294843
0.0265451
0.0235873
0.020613
0.0176241
0.014623
0.0116115
0.0085919
0.00556625
0.00253666
-0.000494721
-0.00352437
-0.00655158
-0.00957422
-0.0125902
-0.0155974
-0.0185936
-0.0215769
-0.0245451
-0.0274962
-0.030428
-0.0333385
-0.0362256
-0.0390874
-0.0419219
-0.044727
-0.0475008
-0.0502413
-0.0529466
-0.0556148
-0.058244
-0.0608324
-0.0633782
-0.0658795
-0.0683346
-0.0707419
-0.0730994
-0.0754058
-0.0776592
-0.0798581
-0.0820009
-0.0840862
-0.0861125
-0.0880783
-0.0899822
-0.0918229
-0.0935991
-0.0953096
-0.0969531
-0.0985284
-0.100034
-0.10147
-0.102835
-0.104127
-0.105345
-0.10649
-0.10756
-0.108554
-0.109472
-0.110313
-0.111076
-0.11176
-0.112367
-0.112894
-0.113341
-0.113709
-0.113996
-0.114203
-0.11433
-0.114376
-0.114342
-0.114308
-0.114194
-0.113999
-0.113724
-0.113368
-0.112933
-0.112417
-0.111823
-0.111149
-0.110397
-0.109566
-0.108659
-0.107674
-0.106614
-0.105478
-0.104267
-0.102983
-0.101626
-0.100196
-0.0986961
-0.097126
-0.095487
-0.0937802
-0.0920069
-0.0901683
-0.0882656
-0.0863001
-0.0842732
-0.0821863
-0.0800408
-0.0778382
-0.07558
-0.0732678
-0.0709031
-0.0684876
-0.0660229
-0.0635107
-0.0609528
-0.0583509
-0.0557067
-0.0530222
-0.0502991
-0.0475393
-0.0447447
-0.0419173
-0.0390589
-0.0361715
-0.0332571
-0.0303177
-0.0273553
-0.024372
-0.0213698
-0.0183508
-0.015317
-0.0122705
-0.00921349
-0.00614798
-0.00307611
0
0.00331007
0.00662016
0.0099279
0.0132309
0.0165269
0.0198135
0.0230882
0.0263489
0.0295931
0.0328185
0.0360229
0.0392039
0.0423592
0.0454865
0.0485837
0.0516485
0.0546787
0.0576721
0.0606265
0.0635399
0.0664102
0.0692352
0.0720129
0.0747414
0.0774186
0.0800427
0.0826117
0.0851238
0.0875772
0.08997
0.0923007
0.0945674
0.0967686
0.0989026
0.100968
0.102963
0.104887
0.106737
0.108513
0.110214
0.111837
0.113383
0.114849
0.116235
0.11754
0.118762
0.119902
0.120957
0.121928
0.122813
0.123613
0.124325
0.124951
0.125489
0.125938
0.1263
0.126572
0.126756
0.126851
0.126857
0.126857
0.126864
0.126782
0.126611
0.126351
0.126002
0.125564
0.125038
0.124424
0.123723
0.122935
0.12206
0.1211
0.120054
0.118924
0.11771
0.116414
0.115036
0.113576
0.112037
0.11042
0.108725
0.106953
0.105106
0.103185
0.101192
0.0991281
0.0969943
0.0947924
0.0925239
0.0901904
0.0877936
0.0853351
0.0828168
0.0802403
0.0776075
0.0749203
0.0721805
0.06939
0.0665508
0.063665
0.0607345
0.0577614
0.0547477
0.0516957
0.0486074
0.045485
0.0423307
0.0391467
0.0359352
0.0326986
0.029439
0.0261587
0.0228601
0.0195454
0.0162171
0.0128773
0.00952849
0.00617297
0.00281309
-0.000548776
-0.00390872
-0.00726596
-0.0106181
-0.0139629
-0.0172979
-0.0206209
-0.0239294
-0.0272212
-0.030494
-0.0337454
-0.0369732
-0.0401751
-0.0433489
-0.0464924
-0.0496033
-0.0526795
-0.0557188
-0.058719
-0.0616781
-0.064594
-0.0674646
-0.0702879
-0.0730619
-0.0757847
-0.0784544
-0.081069
-0.0836268
-0.0861258
-0.0885645
-0.0909409
-0.0932536
-0.0955007
-0.0976808
-0.0997923
-0.101834
-0.103804
-0.105701
-0.107523
-0.10927
-0.110941
-0.112533
-0.114046
-0.115479
-0.116831
-0.1181
-0.119287
-0.120389
-0.121407
-0.122339
-0.123186
-0.123945
-0.124617
-0.125202
-0.125698
-0.126106
-0.126425
-0.126654
-0.126795
-0.126846
-0.126808
-0.126771
-0.126644
-0.126428
-0.126123
-0.125728
-0.125245
-0.124674
-0.124014
-0.123267
-0.122433
-0.121512
-0.120505
-0.119413
-0.118237
-0.116977
-0.115635
-0.11421
-0.112705
-0.11112
-0.109456
-0.107715
-0.105897
-0.104004
-0.102038
-0.0999985
-0.0978883
-0.0957086
-0.0934607
-0.0911462
-0.0887668
-0.0863241
-0.0838197
-0.0812554
-0.0786329
-0.075954
-0.0732207
-0.0704346
-0.0675978
-0.0647122
-0.0617798
-0.0588026
-0.0557826
-0.052722
-0.0496227
-0.046487
-0.043317
-0.0401148
-0.0368827
-0.0336228
-0.0303375
-0.027029
-0.0236995
-0.0203513
-0.0169868
-0.0136082
-0.0102179
-0.0068182
-0.00341145
0
0.00363339
0.00726679
0.0108976
0.0145233
0.0181412
0.0217488
0.0253434
0.0289226
0.0324836
0.0360241
0.0395414
0.0430331
0.0464966
0.0499294
0.0533291
0.0566932
0.0600194
0.0633052
0.0665482
0.0697461
0.0728967
0.0759976
0.0790467
0.0820416
0.0849804
0.0878607
0.0906807
0.0934381
0.0961311
0.0987577
0.101316
0.103804
0.10622
0.108563
0.11083
0.11302
0.115131
0.117162
0.119112
0.120979
0.122761
0.124457
0.126067
0.127588
0.12902
0.130362
0.131613
0.132772
0.133837
0.134809
0.135686
0.136469
0.137155
0.137746
0.138239
0.138636
0.138935
0.139137
0.139241
0.139248
0.139248
0.139256
0.139165
0.138977
0.138692
0.138309
0.137828
0.137251
0.136577
0.135807
0.134942
0.133982
0.132928
0.13178
0.130539
0.129207
0.127784
0.126271
0.12467
0.12298
0.121205
0.119344
0.117399
0.115372
0.113264
0.111076
0.10881
0.106468
0.104051
0.101561
0.0989993
0.0963684
0.0936698
0.0909055
0.0880774
0.0851875
0.0822377
0.0792303
0.0761673
0.0730508
0.0698831
0.0666664
0.0634029
0.0600949
0.0567447
0.0533548
0.0499274
0.046465
0.0429701
0.0394449
0.0358921
0.0323142
0.0287135
0.0250927
0.0214543
0.0178009
0.0141349
0.010459
0.00677576
0.00308773
-0.000602498
-0.00429061
-0.00797576
-0.0116553
-0.0153268
-0.0189876
-0.0226351
-0.0262667
-0.02988
-0.0334725
-0.0370414
-0.0405845
-0.0440992
-0.047583
-0.0510335
-0.0544482
-0.0578249
-0.061161
-0.0644543
-0.0677024
-0.0709031
-0.074054
-0.0771531
-0.0801981
-0.0831868
-0.0861172
-0.0889872
-0.0917948
-0.0945379
-0.0972148
-0.0998234
-0.102362
-0.104829
-0.107222
-0.109539
-0.11178
-0.113942
-0.116025
-0.118025
-0.119943
-0.121776
-0.123524
-0.125185
-0.126758
-0.128242
-0.129635
-0.130938
-0.132148
-0.133265
-0.134289
-0.135217
-0.136051
-0.136789
-0.137431
-0.137975
-0.138423
-0.138773
-0.139025
-0.13918
-0.139236
-0.139194
-0.139153
-0.139014
-0.138777
-0.138441
-0.138008
-0.137478
-0.136851
-0.136127
-0.135307
-0.134391
-0.13338
-0.132275
-0.131077
-0.129786
-0.128403
-0.126929
-0.125365
-0.123713
-0.121973
-0.120147
-0.118235
-0.11624
-0.114162
-0.112004
-0.109765
-0.107449
-0.105056
-0.102589
-0.100048
-0.0974366
-0.0947553
-0.0920063
-0.0891915
-0.0863129
-0.0833724
-0.080372
-0.0773138
-0.0742
-0.0710325
-0.0678137
-0.0645457
-0.0612308
-0.0578712
-0.0544692
-0.0510272
-0.0475476
-0.0440327
-0.0404849
-0.0369067
-0.0333005
-0.0296688
-0.0260141
-0.0223389
-0.0186458
-0.0149373
-0.0112158
-0.0074841
-0.00374463
0
0.00395438
0.00790878
0.0118604
0.0158064
0.0197439
0.0236702
0.0275824
0.0314777
0.0353534
0.0392067
0.0430347
0.0468348
0.0506043
0.0543404
0.0580404
0.0617017
0.0653217
0.0688978
0.0724273
0.0759077
0.0793366
0.0827115
0.0860299
0.0892894
0.0924878
0.0956226
0.0986917
0.101693
0.104624
0.107482
0.110267
0.112974
0.115604
0.118153
0.120621
0.123004
0.125302
0.127513
0.129635
0.131666
0.133606
0.135452
0.137204
0.13886
0.140418
0.141879
0.14324
0.144501
0.145661
0.146718
0.147673
0.148525
0.149272
0.149914
0.150452
0.150884
0.151209
0.151429
0.151543
0.151549
0.151549
0.151558
0.15146
0.151255
0.150944
0.150527
0.150004
0.149376
0.148643
0.147805
0.146863
0.145818
0.144671
0.143422
0.142071
0.140622
0.139073
0.137426
0.135683
0.133845
0.131912
0.129887
0.12777
0.125564
0.123269
0.120888
0.118422
0.115873
0.113243
0.110533
0.107745
0.104882
0.101945
0.0989361
0.0958581
0.0927129
0.0895025
0.0862294
0.0828958
0.079504
0.0760565
0.0725556
0.0690038
0.0654035
0.0617574
0.058068
0.0543379
0.0505696
0.0467659
0.0429294
0.0390627
0.0351687
0.03125
0.0273093
0.0233495
0.0193733
0.0153835
0.0113828
0.00737421
0.00336038
-0.000655846
-0.00466977
-0.00868046
-0.0126851
-0.0166809
-0.0206651
-0.0246348
-0.0285873
-0.0325198
-0.0364295
-0.0403138
-0.0441699
-0.047995
-0.0517866
-0.0555419
-0.0592583
-0.0629332
-0.0665641
-0.0701483
-0.0736833
-0.0771668
-0.0805961
-0.0839689
-0.0872829
-0.0905357
-0.0937249
-0.0968485
-0.0999041
-0.10289
-0.105803
-0.108642
-0.111405
-0.114089
-0.116694
-0.119216
-0.121655
-0.124008
-0.126274
-0.128452
-0.130539
-0.132534
-0.134437
-0.136244
-0.137956
-0.139571
-0.141088
-0.142505
-0.143822
-0.145038
-0.146152
-0.147163
-0.14807
-0.148873
-0.149572
-0.150165
-0.150652
-0.151033
-0.151307
-0.151475
-0.151536
-0.151491
-0.151446
-0.151295
-0.151037
-0.150672
-0.150201
-0.149623
-0.14894
-0.148152
-0.14726
-0.146263
-0.145163
-0.14396
-0.142656
-0.141251
-0.139746
-0.138142
-0.13644