# vtk DataFile Version 3.0
Scalar Field Data
ASCII
DATASET STRUCTURED_POINTS
DIMENSIONS 20 20 1
ORIGIN 0 0 0
SPACING 0.0526316 0.0526316 1
POINT_DATA 400
SCALARS scalars double
LOOKUP_TABLE default
0
0
0
0
0
0
0
0
0
0
0
0
0
0
0
0
0
0
0
0
0
0.10543
0.199435
0.271828
0.314764
0.32359
0.297351
0.238889
0.15454
0.0534438
-0.0534438
-0.15454
-0.238889
-0.297351
-0.32359
-0.314764
-0.271828
-0.199435
-0.10543
0
0
0.199435
0.377257
0.514198
0.595418
0.612115
0.56248
0.451891
0.292333
0.101096
-0.101096
-0.292333
-0.451891
-0.56248
-0.612115
-0.595418
-0.514198
-0.377257
-0.199435
0
0
0.271828
0.514198
0.700848
0.811549
0.834307
0.766655
0.615923
0.398447
0.137793
-0.137793
-0.398447
-0.615923
-0.766655
-0.834307
-0.811549
-0.700848
-0.514198
-0.271828
0
0
0.314764
0.595418
0.811549
0.939737
0.966089
0.887751
0.713211
0.461384
0.159558
-0.159558
-0.461384
-0.713211
-0.887751
-0.966089
-0.939737
-0.811549
-0.595418
-0.314764
0
0
0.32359
0.612115
0.834307
0.966089
0.993181
0.912645
0.733211
0.474322
0.164032
-0.164032
-0.474322
-0.733211
-0.912645
-0.993181
-0.966089
-0.834307
-0.612115
-0.32359
0
0
0.297351
0.56248
0.766655
0.887751
0.912645
0.838641
0.673756
0.43586
0.150731
-0.150731
-0.43586
-0.673756
-0.838641
-0.912645
-0.887751
-0.766655
-0.56248
-0.297351
0
0
0.238889
0.451891
0.615923
0.713211
0.733211
0.673756
0.54129
0.350166
0.121096
-0.121096
-0.350166
-0.54129
-0.673756
-0.733211
-0.713211
-0.615923
-0.451891
-0.238889
0
0
0.15454
0.292333
0.398447
0.461384
0.474322
0.43586
0.350166
0.226526
0.0783384
-0.0783384
-0.226526
-0.350166
-0.43586
-0.474322
-0.461384
-0.398447
-0.292333
-0.15454
0
0
0.0534438
0.101096
0.137793
0.159558
0.164032
0.150731
0.121096
0.0783384
0.0270914
-0.0270914
-0.0783384
-0.121096
-0.150731
-0.164032
-0.159558
-0.137793
-0.101096
-0.0534438
0
0
-0.0534438
-0.101096
-0.137793
-0.159558
-0.164032
-0.150731
-0.121096
-0.0783384
-0.0270914
0.0270914
0.0783384
0.121096
0.150731
0.164032
0.159558
0.137793
0.101096
0.0534438
0
0
-0.15454
-0.292333
-0.398447
-0.461384
-0.474322
-0.43586
-0.350166
-0.226526
-0.0783384
0.0783384
0.226526
0.350166
0.43586
0.474322
0.461384
0.398447
0.292333
0.15454
0
0
-0.238889
-0.451891
-0.615923
-0.713211
-0.733211
-0.673756
-0.54129
-0.350166
-0.121096
0.121096
0.350166
0.54129
0.673756
0.733211
0.713211
0.615923
0.451891
0.238889
0
0
-0.297351
-0.56248
-0.766655
-0.887751
-0.912645
-0.838641
-0.673756
-0.43586
-0.150731
0.150731
0.43586
0.673756
0.838641
0.912645
0.887751
0.766655
0.56248
0.297351
0
0
-0.32359
-0.612115
-0.834307
-0.966089
-0.993181
-0.912645
-0.733211
-0.474322
-0.164032
0.164032
0.474322
0.733211
0.912645
0.993181
0.966089
0.834307
0.612115
0.32359
0
0
-0.314764
-0.595418
-0.811549
-0.939737
-0.966089
-0.887751
-0.713211
-0.461384
-0.159558
0.159558
0.461384
0.713211
0.887751
0.966089
0.939737
0.811549
0.595418
0.314764
0
0
-0.271828
-0.514198
-0.700848
-0.811549
-0.834307
-0.766655
-0.615923
-0.398447
-0.137793
0.137793
0.398447
0.615923
0.766655
0.834307
0.811549
0.700848
0.514198
0.271828
0
0
-0.199435
-0.377257
-0.514198
-0.595418
-0.612115
-0.56248
-0.451891
-0.292333
-0.101096
0.101096
0.292333
0.451891
0.56248
0.612115
0.595418
0.514198
0.377257
0.199435
0
0
-0.10543
-0.199435
-0.271828
-0.314764
-0.32359
-0.297351
-0.238889
-0.15454
-0.0534438
0.0534438
0.15454
0.238889
0.297351
0.32359
0.314764
0.271828
0.199435
0.10543
0
0
0
0
0
0
0
0
0
0
0
0
0
0
0
0
0
0
0
0
0
