# vtk DataFile Version 3.0
Scalar Field Data
ASCII
DATASET STRUCTURED_POINTS
DIMENSIONS 16 16 1
ORIGIN 0 0 0
SPACING 0.0625 0.0625 1
POINT_DATA 256
SCALARS scalars double
LOOKUP_TABLE default
0
0
0
0
0
0
0
0
0
0
0
0
0
0
0
0
0
9.72815e-321
0
0
0.391038
1.26975e-321
0
1.63042e-322
0.0107283
7.16395e-322
0
0.50789
-0.341276
7.16395e-322
0
0
0
0
0
0
0.722904
6.66236e-310
0
5.43231e-310
0.0199916
0
0
0.304887
-0.63067
0
0
0
0
0
0
0
0.945473
6.66222e-310
0
1.18325e-282
0.0265498
-0.13324
7.16395e-322
0
-0.824229
-0.289871
7.16395e-322
0
0
0
0
0
1.02535
5.43364e-310
0
1.58101e-322
0.0295795
-0.246115
0
0
-0.892652
-0.535681
0
0
0
0
0
0
0.951025
5.43364e-310
0
4.98512e-321
0.0288005
-0.321372
-0.252402
7.16395e-322
-0.825803
-0.700102
-0.173481
0
0
0
0
0
0.734683
5.43358e-310
0
5.43231e-310
0.0245177
-0.347513
-0.466374
0
-0.634323
-0.758246
-0.320592
0
0
0
0
0
0.410495
0
0
1.18325e-282
0.0175701
-0.320563
-0.60936
-0.326532
-0.348115
-0.701497
-0.418991
0
0
0
0
0
0.0295833
0
0
0
0.00919486
-0.244706
-0.659661
-0.603401
-0.01196
-0.538878
-0.453782
0
0
0
0
0
-0.347511
0
0
0
0.000825169
-0.131703
-0.609778
-0.788537
0.321048
-0.295762
-0.419802
0
0
0
0
0
-0.659658
0
0
0
-0.00614885
0.000825986
-0.467607
-0.853897
0.597192
-0.0101456
-0.322439
0
0
0
0
0
-0.853894
4.17201e-309
0
4.94066e-324
-0.0106187
0.13197
-0.255326
-0.789785
0.769691
0.272926
-0.176861
0
0
0
0
0
-0.892648
0
0
0
-0.0119573
0.240534
-0.00614836
-0.606397
0.804879
0.507889
-0.00578402
0
0
0
0
0
-0.758243
1.42182e-231
2.122e-312
0
-0.0101442
0.308016
0.240534
-0.332377
0.685854
0.655066
0.163872
0
0
0
0
0
-0.453781
0
0
0
-0.00578339
0.321051
0.444847
-0.0106194
0.412848
0.685855
0.304886
0
0
0
0
0
0
0
0
0
0
0
0
0
0
0
0
0
