# vtk DataFile Version 3.0
Scalar Field Data
ASCII
DATASET STRUCTURED_POINTS
DIMENSIONS 20 20 1
ORIGIN 0 0 0
SPACING 0.0526316 0.0526316 1
POINT_DATA 400
SCALARS scalars double
LOOKUP_TABLE default
0
0
0
0
0
0
0
0
0
0
0
0
0
0
0
0
0
0
0
0
0
8.74496e-322
0
-0.380731
-0.819031
0.326544
8.74496e-322
0
-0.456083
-0.465717
-0.0539569
8.74496e-322
0
0.455974
0.895783
-0.317666
8.74496e-322
0
0.380693
0
0
0
0
-0.20127
-0.707305
0.617701
0
0
-0.241104
-0.40218
-0.102069
0
0
0.241049
0.773601
-0.60091
0
0
0.201251
0
0
0.106394
8.74496e-322
0
-0.518934
0.841917
0.300062
8.74496e-322
0
-0.295067
-0.139125
-0.15598
8.74496e-322
0
0.56758
-0.819038
-0.274332
8.74496e-322
0
0
0
0.201258
0
0
-0.274331
0.974894
0.567605
0
0
-0.155984
-0.161112
-0.295059
0
0
0.300049
-0.948416
-0.518938
0
0
0
0
0.274312
0.201258
8.74496e-322
0
1.00222
0.773636
0.241061
8.74496e-322
0
-0.165648
-0.402169
-0.241102
8.74496e-322
0
-0.975025
-0.707311
-0.201272
8.74496e-322
0
0
0.31764
0.380706
0
0
0.920936
0.895827
0.455998
0
0
-0.152245
-0.465704
-0.456079
0
0
-0.895982
-0.819039
-0.380733
0
0
0
0.326545
0.518897
0.274312
8.74496e-322
0.739846
0.920935
0.621516
0.155936
8.74496e-322
-0.122355
-0.478782
-0.621637
-0.300099
8.74496e-322
-0.719854
-0.842017
-0.518938
-0.106401
0
0
0.300062
0.600857
0.518897
0
0.478575
0.846238
0.719677
0.294972
0
-0.0792186
-0.439987
-0.719838
-0.567679
0
-0.465727
-0.773755
-0.60091
-0.201272
0
0
0.241062
0.617701
0.70725
0.317639
0.165435
0.67983
0.739844
0.402039
0.0539117
-0.0275113
-0.353524
-0.740042
-0.773746
-0.326576
-0.161141
-0.62165
-0.617768
-0.274332
0
0
0.155938
0.567606
0.818959
0.600856
-0.165641
0.439743
0.679828
0.465533
0.101979
0.0271634
-0.228764
-0.68006
-0.895973
-0.617765
0.160897
-0.402188
-0.567685
-0.317666
0
0
0.0539137
0.456
0.841918
0.818959
-0.478775
0.151993
0.546133
0.478571
0.138991
0.0788809
-0.0792275
-0.546395
-0.921114
-0.842013
0.46549
-0.139149
-0.456088
-0.326578
0
0
-0.0539544
0.294975
0.773638
0.948311
-0.740034
-0.152237
0.353246
0.439739
0.160934
0.122037
0.078881
-0.353533
-0.846449
-0.975021
0.719631
0.138961
-0.295072
-0.300101
0
0
-0.155977
0.101983
0.621518
0.974895
-0.921106
-0.439979
0.122069
0.353244
0.165429
0.151956
0.228428
-0.122372
-0.680068
-1.00238
0.895779
0.402005
-0.102086
-0.241107
0
0
-0.241099
-0.102064
0.402043
0.895829
-1.00237
-0.680052
-0.122347
0.228459
0.151988
0.165397
0.353208
0.122036
-0.440002
-0.92112
0.974848
0.621478
0.101958
-0.155986
0
0
-0.300096
-0.295054
0.138996
0.71968
-0.975016
-0.846439
-0.353517
0.0789044
0.122065
0.160904
0.439699
0.353207
-0.152268
-0.740054
0.948269
0.773598
0.294949
-0.0539652
0
0
-0.326574
-0.456074
-0.139119
0.465537
-0.84201
-0.92111
-0.546387
-0.0792128
0.0789018
0.138965
0.478531
0.546089
0.151954
-0.478802
0.818925
0.84188
0.455972
0.0539014
0
0
-0.317663
-0.567674
-0.402162
0.16094
-0.617763
-0.895972
-0.680059
-0.228758
0.0271759
0.101961
0.465497
0.679782
0.439697
-0.165676
0.600833
0.818926
0.567578
0.155924
0
0
-0.27433
-0.61776
-0.62163
-0.161104
-0.326576
-0.773747
-0.740044
-0.353526
-0.027508
0.0539026
0.402009
0.739798
0.67978
0.165393
0.317627
0.707223
0.617675
0.241048
0
0
0
0
0
0
0
0
0
0
0
0
0
0
0
0
0
0
0
0
0
